 argument  1 = nwchem_ord_minimal_0.001.in



============================== echo of input deck ==============================
echo

geometry units angstrom noautoz nocenter
symmetry c1
C     -0.0008286620   -0.0004493055   -0.0003241160
H      0.0005419438   -0.0005510523    1.0881223132
B      0.7614042004    0.0000912434   -1.2402303969
H      1.5507850082   -0.3250641117   -2.0682935236
C     -0.5677515230    0.9696516240   -0.9682785376
H     -0.6787643958    2.0262293122   -0.6791165638
H     -1.3308161697    0.6715931113   -1.7152165963
end

charge 0

basis
  * library sto-3g
end

dft
  mult 2
  xc hfexch
  direct
end

property
  center arb 0.0 0.0 0.0
  response 1 0.001
  convergence 1e-8
end

task dft property
================================================================================


                                         
                                         


              Northwest Computational Chemistry Package (NWChem) 6.6
              ------------------------------------------------------


                    Environmental Molecular Sciences Laboratory
                       Pacific Northwest National Laboratory
                                Richland, WA 99352

                              Copyright (c) 1994-2015
                       Pacific Northwest National Laboratory
                            Battelle Memorial Institute

             NWChem is an open-source computational chemistry package
                        distributed under the terms of the
                      Educational Community License (ECL) 2.0
             A copy of the license is included with this distribution
                              in the LICENSE.TXT file

                                  ACKNOWLEDGMENT
                                  --------------

            This software and its documentation were developed at the
            EMSL at Pacific Northwest National Laboratory, a multiprogram
            national laboratory, operated for the U.S. Department of Energy
            by Battelle under Contract Number DE-AC05-76RL01830. Support
            for this work was provided by the Department of Energy Office
            of Biological and Environmental Research, Office of Basic
            Energy Sciences, and the Office of Advanced Scientific Computing.


           Job information
           ---------------

    hostname        = copper
    program         = nwchem
    date            = Wed May  3 11:14:14 2017

    compiled        = Sun_Feb_14_13:23:17_2016
    source          = /build/nwchem-XLLp2O/nwchem-6.6+r27746
    nwchem branch   = 6.6
    nwchem revision = 27746
    ga revision     = 10594
    input           = nwchem_ord_minimal_0.001.in
    prefix          = nwchem_ord_minimal_0.001.
    data base       = ./nwchem_ord_minimal_0.001.db
    status          = startup
    nproc           =        1
    time left       =     -1s



           Memory information
           ------------------

    heap     =   13107198 doubles =    100.0 Mbytes
    stack    =   13107195 doubles =    100.0 Mbytes
    global   =   26214400 doubles =    200.0 Mbytes (distinct from heap & stack)
    total    =   52428793 doubles =    400.0 Mbytes
    verify   = yes
    hardfail = no 


           Directory information
           ---------------------

  0 permanent = .
  0 scratch   = .




                                NWChem Input Module
                                -------------------



 Scaling coordinates for geometry "geometry" by  1.889725989
 (inverse scale =  0.529177249)

 Turning off AUTOSYM since
 SYMMETRY directive was detected!



                             Geometry "geometry" -> ""
                             -------------------------

 Output coordinates in angstroms (scale by  1.889725989 to convert to a.u.)

  No.       Tag          Charge          X              Y              Z
 ---- ---------------- ---------- -------------- -------------- --------------
    1 C                    6.0000    -0.00082866    -0.00044931    -0.00032412
    2 H                    1.0000     0.00054194    -0.00055105     1.08812231
    3 B                    5.0000     0.76140420     0.00009124    -1.24023040
    4 H                    1.0000     1.55078501    -0.32506411    -2.06829352
    5 C                    6.0000    -0.56775152     0.96965162    -0.96827854
    6 H                    1.0000    -0.67876440     2.02622931    -0.67911656
    7 H                    1.0000    -1.33081617     0.67159311    -1.71521660

      Atomic Mass 
      ----------- 

      C                 12.000000
      H                  1.007825
      B                 11.009310


 Effective nuclear repulsion energy (a.u.)      55.1334855264

            Nuclear Dipole moment (a.u.) 
            ----------------------------
        X                 Y               Z
 ---------------- ---------------- ----------------
    -0.1185117494    15.4728446905   -29.0777283144


            XYZ format geometry
            -------------------
     7
 geometry
 C                    -0.00082866    -0.00044931    -0.00032412
 H                     0.00054194    -0.00055105     1.08812231
 B                     0.76140420     0.00009124    -1.24023040
 H                     1.55078501    -0.32506411    -2.06829352
 C                    -0.56775152     0.96965162    -0.96827854
 H                    -0.67876440     2.02622931    -0.67911656
 H                    -1.33081617     0.67159311    -1.71521660

 ==============================================================================
                                internuclear distances
 ------------------------------------------------------------------------------
       center one      |      center two      | atomic units |  angstroms
 ------------------------------------------------------------------------------
    2 H                |   1 C                |     2.05687  |     1.08845
    3 B                |   1 C                |     2.75042  |     1.45546
    4 H                |   3 B                |     2.24753  |     1.18934
    5 C                |   1 C                |     2.80256  |     1.48305
    5 C                |   3 B                |     3.15118  |     1.66753
    6 H                |   5 C                |     2.08067  |     1.10104
    7 H                |   5 C                |     2.09497  |     1.10861
 ------------------------------------------------------------------------------
                         number of included internuclear distances:          7
 ==============================================================================



 ==============================================================================
                                 internuclear angles
 ------------------------------------------------------------------------------
        center 1       |       center 2       |       center 3       |  degrees
 ------------------------------------------------------------------------------
    2 H                |   1 C                |   3 B                |   148.35
    2 H                |   1 C                |   5 C                |   130.78
    3 B                |   1 C                |   5 C                |    69.14
    1 C                |   3 B                |   4 H                |   160.15
    3 B                |   1 C                |   5 C                |    69.14
    4 H                |   3 B                |   5 C                |   143.28
    5 C                |   1 C                |   3 B                |    69.14
    1 C                |   5 C                |   6 H                |   119.66
    1 C                |   5 C                |   7 H                |   121.80
    3 B                |   5 C                |   6 H                |   132.93
    3 B                |   5 C                |   7 H                |   106.41
    6 H                |   5 C                |   7 H                |   111.44
 ------------------------------------------------------------------------------
                            number of included internuclear angles:         12
 ==============================================================================





 Summary of "ao basis" -> "" (cartesian)
 ------------------------------------------------------------------------------
       Tag                 Description            Shells   Functions and Types
 ---------------- ------------------------------  ------  ---------------------
 *                           sto-3g                   on all atoms 


  xc_inp: hfexch multiplicative factor not found.
                              NWChem Property Module
                              ----------------------



                                 NWChem DFT Module
                                 -----------------


                      Basis "ao basis" -> "ao basis" (cartesian)
                      -----
  C (Carbon)
  ----------
            Exponent  Coefficients 
       -------------- ---------------------------------------------------------
  1 S  7.16168370E+01  0.154329
  1 S  1.30450960E+01  0.535328
  1 S  3.53051220E+00  0.444635

  2 S  2.94124940E+00 -0.099967
  2 S  6.83483100E-01  0.399513
  2 S  2.22289900E-01  0.700115

  3 P  2.94124940E+00  0.155916
  3 P  6.83483100E-01  0.607684
  3 P  2.22289900E-01  0.391957

  H (Hydrogen)
  ------------
            Exponent  Coefficients 
       -------------- ---------------------------------------------------------
  1 S  3.42525091E+00  0.154329
  1 S  6.23913730E-01  0.535328
  1 S  1.68855400E-01  0.444635

  B (Boron)
  ---------
            Exponent  Coefficients 
       -------------- ---------------------------------------------------------
  1 S  4.87911130E+01  0.154329
  1 S  8.88736220E+00  0.535328
  1 S  2.40526700E+00  0.444635

  2 S  2.23695610E+00 -0.099967
  2 S  5.19820500E-01  0.399513
  2 S  1.69061800E-01  0.700115

  3 P  2.23695610E+00  0.155916
  3 P  5.19820500E-01  0.607684
  3 P  1.69061800E-01  0.391957



 Summary of "ao basis" -> "ao basis" (cartesian)
 ------------------------------------------------------------------------------
       Tag                 Description            Shells   Functions and Types
 ---------------- ------------------------------  ------  ---------------------
 C                           sto-3g                  3        5   2s1p
 H                           sto-3g                  1        1   1s
 B                           sto-3g                  3        5   2s1p




 Summary of "ao basis" -> "ao basis" (cartesian)
 ------------------------------------------------------------------------------
       Tag                 Description            Shells   Functions and Types
 ---------------- ------------------------------  ------  ---------------------
 C                           sto-3g                  3        5   2s1p
 H                           sto-3g                  1        1   1s
 B                           sto-3g                  3        5   2s1p


  Caching 1-el integrals 

            General Information
            -------------------
          SCF calculation type: DFT
          Wavefunction type:  spin polarized.
          No. of atoms     :     7
          No. of electrons :    21
           Alpha electrons :    11
            Beta electrons :    10
          Charge           :     0
          Spin multiplicity:     2
          Use of symmetry is: off; symmetry adaption is: off
          Maximum number of iterations:  30
          This is a Direct SCF calculation.
          AO basis - number of functions:    19
                     number of shells:    13
          Convergence on energy requested: 1.00D-06
          Convergence on density requested: 1.00D-05
          Convergence on gradient requested: 5.00D-04

              XC Information
              --------------
                     Hartree-Fock (Exact) Exchange  1.000          

          Convergence Information
          -----------------------
          Convergence aids based upon iterative change in 
          total energy or number of iterations. 
          Levelshifting, if invoked, occurs when the 
          HOMO/LUMO gap drops below (HL_TOL): 1.00D-02
          DIIS, if invoked, will attempt to extrapolate 
          using up to (NFOCK): 10 stored Fock matrices.

                    Damping( 0%)  Levelshifting(0.5)       DIIS
                  --------------- ------------------- ---------------
          dE  on:    start            ASAP                start   
          dE off:    2 iters         30 iters            30 iters 


      Screening Tolerance Information
      -------------------------------
          Density screening/tol_rho: 1.00D-10
          AO Gaussian exp screening on grid/accAOfunc:  14
          CD Gaussian exp screening on grid/accCDfunc:  20
          XC Gaussian exp screening on grid/accXCfunc:  20
          Schwarz screening/accCoul: 1.00D-08


      Superposition of Atomic Density Guess
      -------------------------------------

 Sum of atomic energies:        -100.38058866

      Non-variational initial energy
      ------------------------------

 Total energy =    -100.971505
 1-e energy   =    -245.756768
 2-e energy   =      89.651777
 HOMO         =       0.026140
 LUMO         =       0.293729

   Time after variat. SCF:      0.1
   Time prior to 1st pass:      0.1

           Memory utilization after 1st SCF pass: 
           Heap Space remaining (MW):       13.11            13105830
          Stack Space remaining (MW):       13.11            13106780

   convergence    iter        energy       DeltaE   RMS-Dens  Diis-err    time
 ---------------- ----- ----------------- --------- --------- ---------  ------
 d= 0,ls=0.0,diis     1   -101.3137974638 -1.56D+02  1.16D-02  2.61D-02     0.2
                                                     1.40D-02  3.89D-02
 d= 0,ls=0.0,diis     2   -101.3481621804 -3.44D-02  5.75D-03  4.52D-03     0.2
                                                     5.46D-03  4.09D-03
 d= 0,ls=0.0,diis     3   -101.3548758776 -6.71D-03  1.74D-03  3.43D-04     0.3
                                                     3.47D-03  1.83D-03
 d= 0,ls=0.0,diis     4   -101.3574062502 -2.53D-03  5.09D-03  4.23D-04     0.3
                                                     6.15D-03  5.74D-04
 d= 0,ls=0.0,diis     5   -101.3604618334 -3.06D-03  1.41D-03  5.44D-05     0.3
                                                     1.81D-03  1.40D-04
  Resetting Diis
 d= 0,ls=0.0,diis     6   -101.3608576920 -3.96D-04  1.12D-03  3.13D-05     0.4
                                                     1.37D-03  3.60D-05
 d= 0,ls=0.0,diis     7   -101.3610117719 -1.54D-04  1.76D-04  5.43D-06     0.4
                                                     2.29D-04  7.47D-06
 d= 0,ls=0.0,diis     8   -101.3610266106 -1.48D-05  3.58D-04  3.19D-06     0.5
                                                     4.65D-04  4.36D-06
 d= 0,ls=0.0,diis     9   -101.3610458629 -1.93D-05  2.10D-04  5.96D-07     0.5
                                                     2.91D-04  1.13D-06
 d= 0,ls=0.0,diis    10   -101.3610508496 -4.99D-06  9.56D-05  1.67D-07     0.6
                                                     1.24D-04  1.69D-07
 d= 0,ls=0.0,diis    11   -101.3610516988 -8.49D-07  4.28D-05  3.07D-08     0.6
                                                     4.25D-05  2.42D-08
 d= 0,ls=0.0,diis    12   -101.3610518188 -1.20D-07  1.17D-05  3.31D-09     0.6
                                                     1.02D-05  3.79D-09
 d= 0,ls=0.0,diis    13   -101.3610518306 -1.18D-08  6.31D-06  9.11D-10     0.7
                                                     6.08D-06  1.29D-09


         Total DFT energy =     -101.361051830559
      One electron energy =     -245.641730066396
           Coulomb energy =      104.893882266812
    Exchange-Corr. energy =      -15.746689557423
 Nuclear repulsion energy =       55.133485526447

 Numeric. integr. density =        0.000000000000

     Total iterative time =      0.6s



                    DFT Final Alpha Molecular Orbital Analysis
                    ------------------------------------------

 Vector    1  Occ=1.000000D+00  E=-1.100849D+01
              MO Center= -7.7D-04, -2.7D-04, -5.0D-04, r^2= 2.7D-02
   Bfn.  Coefficient  Atom+Function         Bfn.  Coefficient  Atom+Function  
  ----- ------------  ---------------      ----- ------------  ---------------
     1      0.991898  1 C  s          

 Vector    2  Occ=1.000000D+00  E=-1.099382D+01
              MO Center= -5.7D-01,  9.7D-01, -9.7D-01, r^2= 2.7D-02
   Bfn.  Coefficient  Atom+Function         Bfn.  Coefficient  Atom+Function  
  ----- ------------  ---------------      ----- ------------  ---------------
    13      0.992081  5 C  s          

 Vector    3  Occ=1.000000D+00  E=-7.402168D+00
              MO Center=  7.6D-01,  1.9D-04, -1.2D+00, r^2= 4.1D-02
   Bfn.  Coefficient  Atom+Function         Bfn.  Coefficient  Atom+Function  
  ----- ------------  ---------------      ----- ------------  ---------------
     7      0.990758  3 B  s          

 Vector    4  Occ=1.000000D+00  E=-1.014496D+00
              MO Center= -1.4D-01,  4.1D-01, -5.4D-01, r^2= 1.1D+00
   Bfn.  Coefficient  Atom+Function         Bfn.  Coefficient  Atom+Function  
  ----- ------------  ---------------      ----- ------------  ---------------
     2      0.498603  1 C  s                 14      0.389678  5 C  s          
     1     -0.179445  1 C  s                  8      0.164179  3 B  s          
    13     -0.152082  5 C  s          

 Vector    5  Occ=1.000000D+00  E=-7.529579D-01
              MO Center= -4.1D-01,  6.3D-01, -5.4D-01, r^2= 2.3D+00
   Bfn.  Coefficient  Atom+Function         Bfn.  Coefficient  Atom+Function  
  ----- ------------  ---------------      ----- ------------  ---------------
    14     -0.468422  5 C  s                  2      0.461317  1 C  s          
    19     -0.246284  7 H  s                  6      0.228909  2 H  s          
    18     -0.219705  6 H  s                 13      0.150305  5 C  s          

 Vector    6  Occ=1.000000D+00  E=-6.329006D-01
              MO Center=  3.5D-02,  3.4D-01, -3.7D-01, r^2= 2.4D+00
   Bfn.  Coefficient  Atom+Function         Bfn.  Coefficient  Atom+Function  
  ----- ------------  ---------------      ----- ------------  ---------------
     5      0.392609  1 C  pz                 8     -0.366805  3 B  s          
     6      0.306421  2 H  s                 18      0.219042  6 H  s          
    16      0.200256  5 C  py                12     -0.193442  4 H  s          
    15     -0.168754  5 C  px                 7      0.157209  3 B  s          

 Vector    7  Occ=1.000000D+00  E=-5.507662D-01
              MO Center=  8.6D-01, -4.5D-02, -1.4D+00, r^2= 2.2D+00
   Bfn.  Coefficient  Atom+Function         Bfn.  Coefficient  Atom+Function  
  ----- ------------  ---------------      ----- ------------  ---------------
    12      0.453845  4 H  s                  8      0.331562  3 B  s          
     5      0.244887  1 C  pz                 9      0.236879  3 B  px         
    11     -0.226257  3 B  pz                 6      0.182636  2 H  s          

 Vector    8  Occ=1.000000D+00  E=-5.400946D-01
              MO Center= -5.7D-01,  8.3D-01, -9.3D-01, r^2= 1.7D+00
   Bfn.  Coefficient  Atom+Function         Bfn.  Coefficient  Atom+Function  
  ----- ------------  ---------------      ----- ------------  ---------------
    19      0.397207  7 H  s                 16     -0.325727  5 C  py         
    18     -0.322469  6 H  s                 15     -0.269998  5 C  px         
     4     -0.261733  1 C  py                17     -0.252162  5 C  pz         
     3     -0.188282  1 C  px         

 Vector    9  Occ=1.000000D+00  E=-4.095567D-01
              MO Center=  8.3D-02,  2.5D-01, -6.1D-01, r^2= 1.8D+00
   Bfn.  Coefficient  Atom+Function         Bfn.  Coefficient  Atom+Function  
  ----- ------------  ---------------      ----- ------------  ---------------
     3      0.515001  1 C  px                11      0.336452  3 B  pz         
    17     -0.317130  5 C  pz                 4     -0.306620  1 C  py         
    16      0.268808  5 C  py                12     -0.234897  4 H  s          
    18      0.157644  6 H  s          

 Vector   10  Occ=1.000000D+00  E=-3.627584D-01
              MO Center= -8.4D-02,  3.2D-01, -5.2D-01, r^2= 1.8D+00
   Bfn.  Coefficient  Atom+Function         Bfn.  Coefficient  Atom+Function  
  ----- ------------  ---------------      ----- ------------  ---------------
     4      0.472495  1 C  py                10      0.327759  3 B  py         
     5      0.296990  1 C  pz                 3      0.293687  1 C  px         
    17     -0.283859  5 C  pz                18     -0.268557  6 H  s          
    15      0.256727  5 C  px                 2     -0.235477  1 C  s          
     6      0.216512  2 H  s          

 Vector   11  Occ=1.000000D+00  E=-2.692645D-01
              MO Center= -5.2D-02,  4.0D-01, -7.9D-01, r^2= 1.8D+00
   Bfn.  Coefficient  Atom+Function         Bfn.  Coefficient  Atom+Function  
  ----- ------------  ---------------      ----- ------------  ---------------
     4      0.469581  1 C  py                15     -0.441960  5 C  px         
     9      0.350499  3 B  px                 3      0.330113  1 C  px         
    19      0.278234  7 H  s                 17      0.276536  5 C  pz         
    11      0.274488  3 B  pz         

 Vector   12  Occ=0.000000D+00  E= 2.898400D-01
              MO Center=  6.0D-01, -1.4D-03, -1.0D+00, r^2= 1.4D+00
   Bfn.  Coefficient  Atom+Function         Bfn.  Coefficient  Atom+Function  
  ----- ------------  ---------------      ----- ------------  ---------------
    10      0.656794  3 B  py                 9      0.627406  3 B  px         
     3     -0.345016  1 C  px                 4     -0.345690  1 C  py         
    11      0.311079  3 B  pz                 2      0.176377  1 C  s          
     6     -0.176718  2 H  s          

 Vector   13  Occ=0.000000D+00  E= 4.911604D-01
              MO Center=  1.9D-01,  4.9D-01, -1.1D+00, r^2= 1.6D+00
   Bfn.  Coefficient  Atom+Function         Bfn.  Coefficient  Atom+Function  
  ----- ------------  ---------------      ----- ------------  ---------------
    10      0.663684  3 B  py                15     -0.608182  5 C  px         
    11     -0.428629  3 B  pz                17      0.430735  5 C  pz         
     3      0.378119  1 C  px                 8      0.377000  3 B  s          
     9     -0.323335  3 B  px                14     -0.294497  5 C  s          
     4     -0.257823  1 C  py                18      0.208297  6 H  s          

 Vector   14  Occ=0.000000D+00  E= 5.587411D-01
              MO Center=  7.5D-01, -1.3D-01, -7.3D-01, r^2= 2.2D+00
   Bfn.  Coefficient  Atom+Function         Bfn.  Coefficient  Atom+Function  
  ----- ------------  ---------------      ----- ------------  ---------------
     8      1.113624  3 B  s                  2     -0.950006  1 C  s          
    12     -0.718215  4 H  s                  6      0.560069  2 H  s          
     3     -0.380132  1 C  px                11      0.262521  3 B  pz         
     7     -0.208504  3 B  s                 10     -0.204340  3 B  py         
     9      0.191078  3 B  px                19     -0.186791  7 H  s          

 Vector   15  Occ=0.000000D+00  E= 6.456398D-01
              MO Center= -2.3D-01,  3.6D-01, -6.4D-01, r^2= 2.4D+00
   Bfn.  Coefficient  Atom+Function         Bfn.  Coefficient  Atom+Function  
  ----- ------------  ---------------      ----- ------------  ---------------
    14      1.089614  5 C  s                  2     -0.708680  1 C  s          
     6      0.594284  2 H  s                  8     -0.596009  3 B  s          
    19     -0.578060  7 H  s                 12      0.467654  4 H  s          
     4     -0.406075  1 C  py                 3      0.366884  1 C  px         
    16     -0.354105  5 C  py                18     -0.253459  6 H  s          

 Vector   16  Occ=0.000000D+00  E= 6.897759D-01
              MO Center= -2.2D-01,  8.3D-01, -6.0D-01, r^2= 2.9D+00
   Bfn.  Coefficient  Atom+Function         Bfn.  Coefficient  Atom+Function  
  ----- ------------  ---------------      ----- ------------  ---------------
    14      0.967258  5 C  s                 18     -0.847296  6 H  s          
     6     -0.619974  2 H  s                  5      0.530568  1 C  pz         
    12     -0.489104  4 H  s                 19     -0.394250  7 H  s          
    16      0.388499  5 C  py                 8      0.346295  3 B  s          
    11     -0.310138  3 B  pz                 2      0.287100  1 C  s          

 Vector   17  Occ=0.000000D+00  E= 7.612279D-01
              MO Center= -7.2D-01,  8.3D-01, -1.0D+00, r^2= 1.4D+00
   Bfn.  Coefficient  Atom+Function         Bfn.  Coefficient  Atom+Function  
  ----- ------------  ---------------      ----- ------------  ---------------
    19      0.953096  7 H  s                 17      0.907173  5 C  pz         
    15      0.667238  5 C  px                 2     -0.461454  1 C  s          
     4     -0.411890  1 C  py                18     -0.338062  6 H  s          
     6      0.222438  2 H  s                 16      0.211959  5 C  py         

 Vector   18  Occ=0.000000D+00  E= 8.286508D-01
              MO Center= -2.6D-01,  7.3D-01, -5.9D-01, r^2= 1.9D+00
   Bfn.  Coefficient  Atom+Function         Bfn.  Coefficient  Atom+Function  
  ----- ------------  ---------------      ----- ------------  ---------------
    16      1.004429  5 C  py                18     -0.737905  6 H  s          
     5     -0.638063  1 C  pz                 6      0.528527  2 H  s          
    15     -0.407151  5 C  px                 9     -0.391615  3 B  px         
    12      0.285883  4 H  s                  3     -0.268891  1 C  px         
    10      0.255053  3 B  py                 4      0.242746  1 C  py         

 Vector   19  Occ=0.000000D+00  E= 1.092564D+00
              MO Center=  5.2D-01,  1.1D-02, -8.4D-01, r^2= 1.5D+00
   Bfn.  Coefficient  Atom+Function         Bfn.  Coefficient  Atom+Function  
  ----- ------------  ---------------      ----- ------------  ---------------
    11      1.024282  3 B  pz                 5      0.991144  1 C  pz         
     9     -0.875745  3 B  px                12      0.711425  4 H  s          
     2     -0.634539  1 C  s                  6     -0.459288  2 H  s          
     8      0.446103  3 B  s                  3     -0.346128  1 C  px         
    17      0.225317  5 C  pz                10      0.198576  3 B  py         


                     DFT Final Beta Molecular Orbital Analysis
                     -----------------------------------------

 Vector    1  Occ=1.000000D+00  E=-1.099580D+01
              MO Center= -5.7D-01,  9.7D-01, -9.7D-01, r^2= 2.7D-02
   Bfn.  Coefficient  Atom+Function         Bfn.  Coefficient  Atom+Function  
  ----- ------------  ---------------      ----- ------------  ---------------
    13      0.992058  5 C  s          

 Vector    2  Occ=1.000000D+00  E=-1.098544D+01
              MO Center= -7.8D-04, -2.4D-04, -5.2D-04, r^2= 2.7D-02
   Bfn.  Coefficient  Atom+Function         Bfn.  Coefficient  Atom+Function  
  ----- ------------  ---------------      ----- ------------  ---------------
     1      0.992663  1 C  s          

 Vector    3  Occ=1.000000D+00  E=-7.400645D+00
              MO Center=  7.6D-01,  1.8D-04, -1.2D+00, r^2= 4.0D-02
   Bfn.  Coefficient  Atom+Function         Bfn.  Coefficient  Atom+Function  
  ----- ------------  ---------------      ----- ------------  ---------------
     7      0.990933  3 B  s          

 Vector    4  Occ=1.000000D+00  E=-9.656372D-01
              MO Center= -2.3D-01,  5.4D-01, -6.7D-01, r^2= 1.1D+00
   Bfn.  Coefficient  Atom+Function         Bfn.  Coefficient  Atom+Function  
  ----- ------------  ---------------      ----- ------------  ---------------
    14      0.484258  5 C  s                  2      0.368355  1 C  s          
    13     -0.177573  5 C  s                  8      0.171099  3 B  s          

 Vector    5  Occ=1.000000D+00  E=-7.075080D-01
              MO Center= -3.4D-01,  5.9D-01, -4.4D-01, r^2= 2.3D+00
   Bfn.  Coefficient  Atom+Function         Bfn.  Coefficient  Atom+Function  
  ----- ------------  ---------------      ----- ------------  ---------------
     2      0.442699  1 C  s                 14     -0.407437  5 C  s          
     6      0.280355  2 H  s                 19     -0.226028  7 H  s          
    18     -0.219459  6 H  s          

 Vector    6  Occ=1.000000D+00  E=-6.148797D-01
              MO Center=  9.0D-02,  3.1D-01, -3.5D-01, r^2= 2.5D+00
   Bfn.  Coefficient  Atom+Function         Bfn.  Coefficient  Atom+Function  
  ----- ------------  ---------------      ----- ------------  ---------------
     5      0.362834  1 C  pz                 8     -0.363087  3 B  s          
     6      0.347554  2 H  s                 12     -0.219427  4 H  s          
    18      0.215379  6 H  s                 16      0.207984  5 C  py         
     7      0.154875  3 B  s          

 Vector    7  Occ=1.000000D+00  E=-5.442397D-01
              MO Center=  8.8D-01, -2.6D-02, -1.4D+00, r^2= 2.2D+00
   Bfn.  Coefficient  Atom+Function         Bfn.  Coefficient  Atom+Function  
  ----- ------------  ---------------      ----- ------------  ---------------
    12      0.468252  4 H  s                  8      0.308302  3 B  s          
     9      0.243863  3 B  px                 5      0.234341  1 C  pz         
    11     -0.234131  3 B  pz                 6      0.196962  2 H  s          
    16      0.183527  5 C  py         

 Vector    8  Occ=1.000000D+00  E=-5.011586D-01
              MO Center= -7.0D-01,  9.5D-01, -1.0D+00, r^2= 1.6D+00
   Bfn.  Coefficient  Atom+Function         Bfn.  Coefficient  Atom+Function  
  ----- ------------  ---------------      ----- ------------  ---------------
    19      0.434284  7 H  s                 18     -0.338432  6 H  s          
    16     -0.335882  5 C  py                17     -0.331210  5 C  pz         
    15     -0.285273  5 C  px                 6      0.157736  2 H  s          

 Vector    9  Occ=1.000000D+00  E=-3.831358D-01
              MO Center=  6.7D-02,  2.7D-01, -5.9D-01, r^2= 1.8D+00
   Bfn.  Coefficient  Atom+Function         Bfn.  Coefficient  Atom+Function  
  ----- ------------  ---------------      ----- ------------  ---------------
     3      0.468397  1 C  px                11      0.329874  3 B  pz         
     4     -0.324438  1 C  py                17     -0.324871  5 C  pz         
    16      0.313406  5 C  py                12     -0.222961  4 H  s          
    18      0.184684  6 H  s                  8      0.165979  3 B  s          

 Vector   10  Occ=1.000000D+00  E=-3.116472D-01
              MO Center=  2.4D-02,  4.8D-01, -9.3D-01, r^2= 1.7D+00
   Bfn.  Coefficient  Atom+Function         Bfn.  Coefficient  Atom+Function  
  ----- ------------  ---------------      ----- ------------  ---------------
    15      0.489054  5 C  px                10      0.458261  3 B  py         
    17     -0.358880  5 C  pz                 5      0.244735  1 C  pz         
     2     -0.230954  1 C  s                  6      0.215112  2 H  s          
    11     -0.170515  3 B  pz         

 Vector   11  Occ=0.000000D+00  E= 1.789582D-01
              MO Center=  2.8D-01,  1.2D-01, -7.9D-01, r^2= 1.7D+00
   Bfn.  Coefficient  Atom+Function         Bfn.  Coefficient  Atom+Function  
  ----- ------------  ---------------      ----- ------------  ---------------
     9      0.495538  3 B  px                 4      0.419342  1 C  py         
    11      0.340335  3 B  pz                10      0.330855  3 B  py         
     3      0.328937  1 C  px                19      0.270443  7 H  s          
    18     -0.216526  6 H  s                 15     -0.175135  5 C  px         
    17      0.151845  5 C  pz         

 Vector   12  Occ=0.000000D+00  E= 4.014313D-01
              MO Center=  2.9D-01, -4.8D-02, -5.9D-01, r^2= 1.5D+00
   Bfn.  Coefficient  Atom+Function         Bfn.  Coefficient  Atom+Function  
  ----- ------------  ---------------      ----- ------------  ---------------
    10     -0.656233  3 B  py                 4      0.634653  1 C  py         
     3      0.413796  1 C  px                 9     -0.389359  3 B  px         
     2     -0.311700  1 C  s                  6      0.185004  2 H  s          

 Vector   13  Occ=0.000000D+00  E= 5.096245D-01
              MO Center=  1.2D-01,  5.0D-01, -1.1D+00, r^2= 1.6D+00
   Bfn.  Coefficient  Atom+Function         Bfn.  Coefficient  Atom+Function  
  ----- ------------  ---------------      ----- ------------  ---------------
    15      0.602169  5 C  px                10     -0.502816  3 B  py         
     3     -0.450533  1 C  px                11      0.447274  3 B  pz         
     8     -0.440621  3 B  s                  9      0.440525  3 B  px         
    17     -0.425617  5 C  pz                14      0.356199  5 C  s          
    18     -0.253629  6 H  s                 16      0.192914  5 C  py         

 Vector   14  Occ=0.000000D+00  E= 5.865626D-01
              MO Center=  8.8D-01, -1.8D-01, -9.1D-01, r^2= 1.9D+00
   Bfn.  Coefficient  Atom+Function         Bfn.  Coefficient  Atom+Function  
  ----- ------------  ---------------      ----- ------------  ---------------
     8      1.165099  3 B  s                  2     -0.817864  1 C  s          
    12     -0.804928  4 H  s                  3     -0.448036  1 C  px         
     6      0.422461  2 H  s                  9      0.256409  3 B  px         
    10     -0.230947  3 B  py                 7     -0.215235  3 B  s          
    11      0.201705  3 B  pz         

 Vector   15  Occ=0.000000D+00  E= 6.731724D-01
              MO Center= -4.0D-01,  4.0D-01, -6.2D-01, r^2= 2.3D+00
   Bfn.  Coefficient  Atom+Function         Bfn.  Coefficient  Atom+Function  
  ----- ------------  ---------------      ----- ------------  ---------------
    14      1.096257  5 C  s                  2     -0.795827  1 C  s          
    19     -0.689302  7 H  s                  6      0.621301  2 H  s          
     8     -0.433613  3 B  s                  4     -0.372583  1 C  py         
    16     -0.362466  5 C  py                12      0.353744  4 H  s          
     3      0.315058  1 C  px                11      0.253950  3 B  pz         

 Vector   16  Occ=0.000000D+00  E= 7.050047D-01
              MO Center= -2.3D-01,  8.8D-01, -5.6D-01, r^2= 2.8D+00
   Bfn.  Coefficient  Atom+Function         Bfn.  Coefficient  Atom+Function  
  ----- ------------  ---------------      ----- ------------  ---------------
    14      0.922460  5 C  s                 18     -0.883970  6 H  s          
     6     -0.606953  2 H  s                  5      0.508638  1 C  pz         
    12     -0.454424  4 H  s                 16      0.437541  5 C  py         
    11     -0.361299  3 B  pz                 2      0.336593  1 C  s          
    19     -0.327842  7 H  s                  8      0.300022  3 B  s          

 Vector   17  Occ=0.000000D+00  E= 7.846832D-01
              MO Center= -6.6D-01,  7.7D-01, -9.2D-01, r^2= 1.5D+00
   Bfn.  Coefficient  Atom+Function         Bfn.  Coefficient  Atom+Function  
  ----- ------------  ---------------      ----- ------------  ---------------
    19      0.916096  7 H  s                 17      0.882138  5 C  pz         
    15      0.659388  5 C  px                 2     -0.531911  1 C  s          
     4     -0.512761  1 C  py                 6      0.300084  2 H  s          
    18     -0.289759  6 H  s          

 Vector   18  Occ=0.000000D+00  E= 8.389306D-01
              MO Center= -2.2D-01,  6.8D-01, -5.8D-01, r^2= 2.0D+00
   Bfn.  Coefficient  Atom+Function         Bfn.  Coefficient  Atom+Function  
  ----- ------------  ---------------      ----- ------------  ---------------
    16      0.985362  5 C  py                18     -0.716501  6 H  s          
     5     -0.640395  1 C  pz                 6      0.531800  2 H  s          
     9     -0.419514  3 B  px                15     -0.390348  5 C  px         
    12      0.313040  4 H  s                  3     -0.305880  1 C  px         
    10      0.260099  3 B  py                 4      0.234061  1 C  py         

 Vector   19  Occ=0.000000D+00  E= 1.113828D+00
              MO Center=  4.8D-01,  1.8D-02, -8.1D-01, r^2= 1.4D+00
   Bfn.  Coefficient  Atom+Function         Bfn.  Coefficient  Atom+Function  
  ----- ------------  ---------------      ----- ------------  ---------------
     5      1.020041  1 C  pz                11      1.015778  3 B  pz         
     9     -0.855334  3 B  px                12      0.681147  4 H  s          
     2     -0.672581  1 C  s                  8      0.467958  3 B  s          
     6     -0.451249  2 H  s                  3     -0.354022  1 C  px         
    17      0.238991  5 C  pz                10      0.190110  3 B  py         


   alpha - beta orbital overlaps 
   ----------------------------- 


   alpha      1      2      3      4      5      6      7      8      9     10
    beta      2      1      3      4      5      6      7      8      9     10
 overlap   1.000  1.000  1.000  0.988  0.985  0.996  0.994  0.959  0.993  0.822


   alpha     11     12     13     14     15     16     17     18     19
    beta     11     12     13     14     15     16     17     18     19
 overlap   0.786  0.868  0.968  0.986  0.987  0.995  0.990  0.998  0.999

     --------------------------
     Expectation value of S2:  
     --------------------------
      <S2> =      0.7802 (Exact =     0.7500)


 center of mass
 --------------
 x =   0.05313480 y =   0.67873222 z =  -1.38814385

 moments of inertia (a.u.)
 ------------------
          96.412334679589          34.977367292762          12.355602347817
          34.977367292762         110.509519535773          10.136043015291
          12.355602347817          10.136043015291          92.268757306654

     Multipole analysis of the density
     ---------------------------------

     L   x y z        total         alpha         beta         nuclear
     -   - - -        -----         -----         ----         -------
     0   0 0 0     -0.000000    -11.000000    -10.000000     21.000000

     1   1 0 0      0.057658      0.154639      0.021532     -0.118512
     1   0 1 0     -0.010418     -7.755430     -7.727833     15.472845
     1   0 0 1      0.085139     14.853923     14.308944    -29.077728

     2   2 0 0    -13.288257    -24.365400    -22.738922     33.816064
     2   1 1 0      0.509277     11.066937     11.140061    -21.697721
     2   1 0 1      0.349459      3.283653      3.802342     -6.736537
     2   0 2 0    -13.283670    -25.755299    -24.323390     36.795020
     2   0 1 1      0.598769     13.831593     13.515045    -26.747869
     2   0 0 2    -13.039803    -46.934922    -45.315563     79.210682

 *** CALLING NEW AORESP DRIVER FOR CLOSED AND OPEN SHELLS ***
 Entering AOResponse driver routine


--------------------------------------------------------------------------------

          ****************
          *** RESPONSE ***
          ****************

 Response module for NWChem and dynamic CPKS solver
 developed by J. Autschbach and coworkers, SUNY Buffalo
 The methodology used in this program is described in 
 ChemPhysChem 12 (2011), 3224-3235 (main reference)
 J. Chem. Phys. 123 (2005), 114103
 J. Chem. Phys. 122 (2005), 224115
 J. Chem. Phys. 122 (2005), 074105
 Comp. Lett. 3 (2007), 131-150 (contact JA for a copy)
 Please cite this work in publications based on results
 obtained with this code. Thank you!

 For extension of response module to open shell
 calculations please acknowledge:
 F. Aquino, Northwestern University, Schatz Rsrch Group
 The update to the methodology is described in
 J. Phys. Chem. A 118 (2014) 517-525



          -----------------------------------------------
          Solving response equations for perturbing field
          -----------------------------------------------

 number of frequencies:     1
 frequency in a.u.:  0.1000000E-02
 Perturbing field: electric
 Using Dipole Length Gauge

 Setting up CPKS with frequency omega =      0.00100000 a.u.


                            NWChem Dynamic CPHF Module
                            --------------------------


    scftype = UHF 
     nalpha =   11
      nbeta =   10
  variables =      356
  num. vecs =        3
  tolerance =   1.0D-08
  max. iter =   50

 SCF residual:    3.2693811972306517E-005


Iterative solution of linear equations
  No. of variables      356
  No. of equations        3
  Maximum subspace       30
       Convergence  1.0D-08
        Start time      2.1


   iter   nsub   residual    time 
   ----  ------  --------  --------- 
     1      3    1.05D+01       2.2
     2      6    2.67D+00       2.4
     3      9    4.60D-01       2.6
     4     12    4.49D-01       2.8
     5     15    2.63D-01       3.0
     6     18    1.10D-01       3.2
     7     21    5.12D-02       3.4
     8     24    1.41D-02       3.6
     9     27    4.40D-03       3.7
    10     30    1.17D-03       3.9
    11     30    2.29D-04       4.1
    12     30    2.35D-04       4.3
    13     30    3.98D-05       4.5
    14     30    8.44D-06       4.7
    15     30    3.37D-06       4.9
    16     30    1.70D-06       5.1
    17     30    5.69D-07       5.3
    18     30    9.02D-07       5.4
    19     30    2.45D-06       5.6
    20     30    1.89D-06       5.8
    21     30    4.09D-06       6.0
    22     30    2.84D-06       6.2
    23     30    2.15D-06       6.3
    24     30    1.66D-06       6.5
    25     30    2.23D-06       6.7
    26     30    3.18D-06       6.9
    27     30    2.44D-06       7.1
    28     30    3.46D-06       7.2
    29     30    5.00D-06       7.4
    30     30    2.44D-06       7.6
    31     30    3.32D-06       7.8
    32     30    8.38D-06       8.0
    33     30    3.37D-06       8.1
    34     30    3.82D-06       8.3
    35     30    2.62D-06       8.5
    36     30    3.47D-06       8.7
    37     30    1.47D-06       8.9
    38     30    1.24D-06       9.0
    39     30    3.03D-06       9.2
    40     30    5.04D-06       9.4
    41     30    3.47D-06       9.6
    42     30    6.36D-06       9.8
    43     30    3.10D-06       9.9
    44     30    7.20D-06      10.1
    45     30    2.51D-06      10.3
    46     30    1.45D-06      10.5
    47     30    2.62D-06      10.7
    48     30    4.03D-06      10.8
    49     30    2.87D-06      11.0
    50     30    2.13D-06      11.2
 WARNING: CPKS procedure is NOT converged
   I will proceed, but check your results!

 Electric Dipole Response Matrix (nonzero elements):

              1        2        3      
    1   16.0703  -4.9833  -2.2294
    2   -4.9833  13.1503   0.2844
    3   -2.2294   0.2844  18.1994

 DFT Linear Response polarizability / au 
 Frequency  =       0.0010000 / au
 Wavelength =   45563.3530000 / nm
              X              Y              Z
 -----------------------------------------------
 X      16.0702789     -4.9832818     -2.2293882
 Y      -4.9832818     13.1502964      0.2844393
 Z      -2.2293882      0.2844393     18.1994070
 -----------------------------------------------
 Eigenvalues =      21.1472053      9.2739263     16.9988506
 Isotropic   =      15.8066608
 Anisotropic =       8.5216989
 -----------------------------------------------

 average:    15.806660760557687       + I    0.0000000000000000     

 Magnetic Dipole Response Matrix (nonzero elements):
 Optical rotation tensor Beta

              1        2        3      
    1   -1.7067  -5.8002  -2.9465
    2    7.2404   0.9278   5.3503
    3    4.9573  -0.5056  -3.3741
 average:   -1.3843360141923111       + I    0.0000000000000000     

 Principal components and PAS (Real part)
                8.6023
               -7.3024
               -5.4528
 ---------------------
 average:      -1.3843

              1        2        3      
    1   -0.5321  -0.3549   0.7687
    2    0.7166  -0.6724   0.1855
    3    0.4510   0.6495   0.6121
 Exiting AOResponse driver routine

 Task  times  cpu:        3.8s     wall:       11.2s


                                NWChem Input Module
                                -------------------


 Summary of allocated global arrays
-----------------------------------
  No active global arrays



                         GA Statistics for process    0
                         ------------------------------

       create   destroy   get      put      acc     scatter   gather  read&inc
calls: 7441     7441     2.52e+05 1.14e+05 1.25e+05 9398        0     1828     
number of processes/call 1.00e+00 1.00e+00 1.00e+00 0.00e+00 0.00e+00
bytes total:             2.32e+08 5.45e+07 1.82e+08 1.52e+02 0.00e+00 1.46e+04
bytes remote:            0.00e+00 0.00e+00 0.00e+00 0.00e+00 0.00e+00 0.00e+00
Max memory consumed for GA by this process: 583144 bytes

MA_summarize_allocated_blocks: starting scan ...
MA_summarize_allocated_blocks: scan completed: 0 heap blocks, 0 stack blocks
MA usage statistics:

	allocation statistics:
					      heap	     stack
					      ----	     -----
	current number of blocks	         0	         0
	maximum number of blocks	        24	        35
	current total bytes		         0	         0
	maximum total bytes		     80120	  22512120
	maximum total K-bytes		        81	     22513
	maximum total M-bytes		         1	        23


                                     CITATION
                                     --------
                Please cite the following reference when publishing
                           results obtained with NWChem:

                 M. Valiev, E.J. Bylaska, N. Govind, K. Kowalski,
              T.P. Straatsma, H.J.J. van Dam, D. Wang, J. Nieplocha,
                        E. Apra, T.L. Windus, W.A. de Jong
                 "NWChem: a comprehensive and scalable open-source
                  solution for large scale molecular simulations"
                      Comput. Phys. Commun. 181, 1477 (2010)
                           doi:10.1016/j.cpc.2010.04.018

                                      AUTHORS
                                      -------
          E. Apra, E. J. Bylaska, W. A. de Jong, N. Govind, K. Kowalski,
       T. P. Straatsma, M. Valiev, H. J. J. van Dam, D. Wang, T. L. Windus,
        J. Hammond, J. Autschbach, K. Bhaskaran-Nair, J. Brabec, K. Lopata,
       S. A. Fischer, S. Krishnamoorthy, W. Ma, M. Klemm, O. Villa, Y. Chen,
    V. Anisimov, F. Aquino, S. Hirata, M. T. Hackler, T. Risthaus, M. Malagoli,
       A. Marenich, A. Otero-de-la-Roza, J. Mullin, P. Nichols, R. Peverati,
     J. Pittner, Y. Zhao, P.-D. Fan, A. Fonari, M. Williamson, R. J. Harrison,
       J. R. Rehr, M. Dupuis, D. Silverstein, D. M. A. Smith, J. Nieplocha,
        V. Tipparaju, M. Krishnan, B. E. Van Kuiken, A. Vazquez-Mayagoitia,
        L. Jensen, M. Swart, Q. Wu, T. Van Voorhis, A. A. Auer, M. Nooijen,
      L. D. Crosby, E. Brown, G. Cisneros, G. I. Fann, H. Fruchtl, J. Garza,
        K. Hirao, R. A. Kendall, J. A. Nichols, K. Tsemekhman, K. Wolinski,
     J. Anchell, D. E. Bernholdt, P. Borowski, T. Clark, D. Clerc, H. Dachsel,
   M. J. O. Deegan, K. Dyall, D. Elwood, E. Glendening, M. Gutowski, A. C. Hess,
         J. Jaffe, B. G. Johnson, J. Ju, R. Kobayashi, R. Kutteh, Z. Lin,
   R. Littlefield, X. Long, B. Meng, T. Nakajima, S. Niu, L. Pollack, M. Rosing,
   K. Glaesemann, G. Sandrone, M. Stave, H. Taylor, G. Thomas, J. H. van Lenthe,
                               A. T. Wong, Z. Zhang.

 Total times  cpu:        3.8s     wall:       11.2s
