

     ************************************************************************
     *************** Dalton - An Electronic Structure Program ***************
     ************************************************************************

    This is output from DALTON release Dalton2016.2 (2016)
         ( Web site: http://daltonprogram.org )

   ----------------------------------------------------------------------------

    NOTE:
     
    Dalton is an experimental code for the evaluation of molecular
    properties using (MC)SCF, DFT, CI, and CC wave functions.
    The authors accept no responsibility for the performance of
    the code or for the correctness of the results.
     
    The code (in whole or part) is provided under a licence and
    is not to be reproduced for further distribution without
    the written permission of the authors or their representatives.
     
    See the home page "http://daltonprogram.org" for further information.
     
    If results obtained with this code are published,
    the appropriate citations would be both of:
     
       K. Aidas, C. Angeli, K. L. Bak, V. Bakken, R. Bast,
       L. Boman, O. Christiansen, R. Cimiraglia, S. Coriani,
       P. Dahle, E. K. Dalskov, U. Ekstroem,
       T. Enevoldsen, J. J. Eriksen, P. Ettenhuber, B. Fernandez,
       L. Ferrighi, H. Fliegl, L. Frediani, K. Hald, A. Halkier,
       C. Haettig, H. Heiberg, T. Helgaker, A. C. Hennum,
       H. Hettema, E. Hjertenaes, S. Hoest, I.-M. Hoeyvik,
       M. F. Iozzi, B. Jansik, H. J. Aa. Jensen, D. Jonsson,
       P. Joergensen, J. Kauczor, S. Kirpekar,
       T. Kjaergaard, W. Klopper, S. Knecht, R. Kobayashi, H. Koch,
       J. Kongsted, A. Krapp, K. Kristensen, A. Ligabue,
       O. B. Lutnaes, J. I. Melo, K. V. Mikkelsen, R. H. Myhre,
       C. Neiss, C. B. Nielsen, P. Norman, J. Olsen,
       J. M. H. Olsen, A. Osted, M. J. Packer, F. Pawlowski,
       T. B. Pedersen, P. F. Provasi, S. Reine, Z. Rinkevicius,
       T. A. Ruden, K. Ruud, V. Rybkin, P. Salek, C. C. M. Samson,
       A. Sanchez de Meras, T. Saue, S. P. A. Sauer,
       B. Schimmelpfennig, K. Sneskov, A. H. Steindal,
       K. O. Sylvester-Hvid, P. R. Taylor, A. M. Teale,
       E. I. Tellgren, D. P. Tew, A. J. Thorvaldsen, L. Thoegersen,
       O. Vahtras, M. A. Watson, D. J. D. Wilson, M. Ziolkowski
       and H. Agren,
       "The Dalton quantum chemistry program system",
       WIREs Comput. Mol. Sci. 2014, 4:269–284 (doi: 10.1002/wcms.1172)
     
    and
     
       Dalton, a Molecular Electronic Structure Program,
       Release Dalton2016.2 (2016), see http://daltonprogram.org
   ----------------------------------------------------------------------------

    Authors in alphabetical order (major contribution(s) in parenthesis):

  Kestutis Aidas,           Vilnius University,           Lithuania   (QM/MM)
  Celestino Angeli,         University of Ferrara,        Italy       (NEVPT2)
  Keld L. Bak,              UNI-C,                        Denmark     (AOSOPPA, non-adiabatic coupling, magnetic properties)
  Vebjoern Bakken,          University of Oslo,           Norway      (DALTON; geometry optimizer, symmetry detection)
  Radovan Bast,             UiT The Arctic U. of Norway,  Norway      (DALTON installation and execution frameworks)
  Pablo Baudin,             University of Valencia,       Spain       (Cholesky excitation energies)
  Linus Boman,              NTNU,                         Norway      (Cholesky decomposition and subsystems)
  Ove Christiansen,         Aarhus University,            Denmark     (CC module)
  Renzo Cimiraglia,         University of Ferrara,        Italy       (NEVPT2)
  Sonia Coriani,            University of Trieste,        Italy       (CC module, MCD in RESPONS)
  Janusz Cukras,            University of Trieste,        Italy       (MChD in RESPONS)
  Paal Dahle,               University of Oslo,           Norway      (Parallelization)
  Erik K. Dalskov,          UNI-C,                        Denmark     (SOPPA)
  Thomas Enevoldsen,        Univ. of Southern Denmark,    Denmark     (SOPPA)
  Janus J. Eriksen,         Aarhus University,            Denmark     (Polarizable embedding model, TDA)
  Rasmus Faber,             University of Copenhagen,     Denmark     (Vib.avg. NMR with SOPPA, parallel AO-SOPPA)
  Berta Fernandez,          U. of Santiago de Compostela, Spain       (doublet spin, ESR in RESPONS)
  Lara Ferrighi,            Aarhus University,            Denmark     (PCM Cubic response)
  Heike Fliegl,             University of Oslo,           Norway      (CCSD(R12))
  Luca Frediani,            UiT The Arctic U. of Norway,  Norway      (PCM)
  Bin Gao,                  UiT The Arctic U. of Norway,  Norway      (Gen1Int library)
  Christof Haettig,         Ruhr-University Bochum,       Germany     (CC module)
  Kasper Hald,              Aarhus University,            Denmark     (CC module)
  Asger Halkier,            Aarhus University,            Denmark     (CC module)
  Frederik Beyer Hansen,    University of Copenhagen,     Denmark     (Parallel AO-SOPPA)
  Erik D. Hedegaard,        Univ. of Southern Denmark,    Denmark     (Polarizable embedding model, QM/MM)
  Hanne Heiberg,            University of Oslo,           Norway      (geometry analysis, selected one-electron integrals)
  Trygve Helgaker,          University of Oslo,           Norway      (DALTON; ABACUS, ERI, DFT modules, London, and much more)
  Alf Christian Hennum,     University of Oslo,           Norway      (Parity violation)
  Hinne Hettema,            University of Auckland,       New Zealand (quadratic response in RESPONS; SIRIUS supersymmetry)
  Eirik Hjertenaes,         NTNU,                         Norway      (Cholesky decomposition)
  Maria Francesca Iozzi,    University of Oslo,           Norway      (RPA)
  Brano Jansik              Technical Univ. of Ostrava    Czech Rep.  (DFT cubic response)
  Hans Joergen Aa. Jensen,  Univ. of Southern Denmark,    Denmark     (DALTON; SIRIUS, RESPONS, ABACUS modules, London, and much more)
  Dan Jonsson,              UiT The Arctic U. of Norway,  Norway      (cubic response in RESPONS module)
  Poul Joergensen,          Aarhus University,            Denmark     (RESPONS, ABACUS, and CC modules)
  Maciej Kaminski,          University of Warsaw,         Poland      (CPPh in RESPONS)
  Joanna Kauczor,           Linkoeping University,        Sweden      (Complex polarization propagator (CPP) module)
  Sheela Kirpekar,          Univ. of Southern Denmark,    Denmark     (Mass-velocity & Darwin integrals)
  Wim Klopper,              KIT Karlsruhe,                Germany     (R12 code in CC, SIRIUS, and ABACUS modules)
  Stefan Knecht,            ETH Zurich,                   Switzerland (Parallel CI and MCSCF)
  Rika Kobayashi,           Australian National Univ.,    Australia   (DIIS in CC, London in MCSCF)
  Henrik Koch,              NTNU,                         Norway      (CC module, Cholesky decomposition)
  Jacob Kongsted,           Univ. of Southern Denmark,    Denmark     (Polarizable embedding model, QM/MM)
  Andrea Ligabue,           University of Modena,         Italy       (CTOCD, AOSOPPA)
  Nanna H. List             Univ. of Southern Denmark,    Denmark     (Polarizable embedding model)
  Ola B. Lutnaes,           University of Oslo,           Norway      (DFT Hessian)
  Juan I. Melo,             University of Buenos Aires,   Argentina   (LRESC, Relativistic Effects on NMR Shieldings)
  Kurt V. Mikkelsen,        University of Copenhagen,     Denmark     (MC-SCRF and QM/MM)
  Rolf H. Myhre,            NTNU,                         Norway      (Cholesky, subsystems and ECC2)
  Christian Neiss,          Univ. Erlangen-Nuernberg,     Germany     (CCSD(R12))
  Christian B. Nielsen,     University of Copenhagen,     Denmark     (QM/MM)
  Patrick Norman,           Linkoeping University,        Sweden      (Cubic response and complex frequency response in RESPONS)
  Jeppe Olsen,              Aarhus University,            Denmark     (SIRIUS CI/density modules)
  Jogvan Magnus H. Olsen,   Univ. of Southern Denmark,    Denmark     (Polarizable embedding model, QM/MM)
  Anders Osted,             Copenhagen University,        Denmark     (QM/MM)
  Martin J. Packer,         University of Sheffield,      UK          (SOPPA)
  Filip Pawlowski,          Kazimierz Wielki University,  Poland      (CC3)
  Morten N. Pedersen,       Univ. of Southern Denmark,    Denmark     (Polarizable embedding model)
  Thomas B. Pedersen,       University of Oslo,           Norway      (Cholesky decomposition)
  Patricio F. Provasi,      University of Northeastern,   Argentina   (Analysis of coupling constants in localized orbitals)
  Zilvinas Rinkevicius,     KTH Stockholm,                Sweden      (open-shell DFT, ESR)
  Elias Rudberg,            KTH Stockholm,                Sweden      (DFT grid and basis info)
  Torgeir A. Ruden,         University of Oslo,           Norway      (Numerical derivatives in ABACUS)
  Kenneth Ruud,             UiT The Arctic U. of Norway,  Norway      (DALTON; ABACUS magnetic properties and much more)
  Pawel Salek,              KTH Stockholm,                Sweden      (DALTON; DFT code)
  Claire C. M. Samson       University of Karlsruhe       Germany     (Boys localization, r12 integrals in ERI)
  Alfredo Sanchez de Meras, University of Valencia,       Spain       (CC module, Cholesky decomposition)
  Trond Saue,               Paul Sabatier University,     France      (direct Fock matrix construction)
  Stephan P. A. Sauer,      University of Copenhagen,     Denmark     (SOPPA(CCSD), SOPPA prop., AOSOPPA, vibrational g-factors)
  Bernd Schimmelpfennig,    Forschungszentrum Karlsruhe,  Germany     (AMFI module)
  Kristian Sneskov,         Aarhus University,            Denmark     (Polarizable embedding model, QM/MM)
  Arnfinn H. Steindal,      UiT The Arctic U. of Norway,  Norway      (parallel QM/MM, Polarizable embedding model)
  Casper Steinmann,         Univ. of Southern Denmark,    Denmark     (QFIT, Polarizable embedding model)
  K. O. Sylvester-Hvid,     University of Copenhagen,     Denmark     (MC-SCRF)
  Peter R. Taylor,          VLSCI/Univ. of Melbourne,     Australia   (Symmetry handling ABACUS, integral transformation)
  Andrew M. Teale,          University of Nottingham,     England     (DFT-AC, DFT-D)
  David P. Tew,             University of Bristol,        England     (CCSD(R12))
  Olav Vahtras,             KTH Stockholm,                Sweden      (triplet response, spin-orbit, ESR, TDDFT, open-shell DFT)
  David J. Wilson,          La Trobe University,          Australia   (DFT Hessian and DFT magnetizabilities)
  Hans Agren,               KTH Stockholm,                Sweden      (SIRIUS module, RESPONS, MC-SCRF solvation model)
 --------------------------------------------------------------------------------

     Date and time (Linux)  : Tue May  9 22:06:07 2017
     Host name              : copper                                  

 * Work memory size             :    64000000 =  488.28 megabytes.

 * Directories for basis set searches:
   1) /home/eric/development/pyresponse/r_lih_hf_sto-3g
   2) /home/eric/opt/apps/dalton/2016.2-g6.3.1-openblas-omp/dalton/basis


Compilation information
-----------------------

 Who compiled             | eric
 Host                     | copper
 System                   | Linux-4.9.6-1-ARCH
 CMake generator          | Unix Makefiles
 Processor                | x86_64
 64-bit integers          | OFF
 MPI                      | OFF
 Fortran compiler         | /usr/bin/gfortran
 Fortran compiler version | GNU Fortran (GCC) 6.3.1 20170109
 C compiler               | /usr/bin/gcc
 C compiler version       | gcc (GCC) 6.3.1 20170109
 C++ compiler             | /usr/bin/g++
 C++ compiler version     | g++ (GCC) 6.3.1 20170109
 BLAS                     | /lib64/libopenblas.so
 LAPACK                   | /lib64/liblapack.so
 Static linking           | OFF
 Last Git revision        | 7db4647eac203e51aae7da3cbc289f55146b30e9
 Configuration time       | 2017-02-06 10:48:14.292909


   Content of the .dal input file
 ----------------------------------

BASIS
STO-3G
---
---
Atomtypes=2 Angstrom Charge=0 Nosymmetry
Charge=3.0 Atoms=1
Li  0.0000  0.0000  0.0000
Charge=1.0 Atoms=1
H   0.0000  0.0000  1.5949

**DALTON INPUT
.RUN ALL
**WAVE FUNCTIONS
.HF
*SCF IN
.THRESH
1.0D-07
.MAX DIIS ITERATIONS
200
**RESPONSE
*LINEAR
.THCLR
1.0D-6
.DIPLEN
.SINGLE RESIDUE
.ABCHK
.PRINT
2000
**END OF DALTON INPUT


       *******************************************************************
       *********** Output from DALTON general input processing ***********
       *******************************************************************

 --------------------------------------------------------------------------------
   Overall default print level:    0
   Print level for DALTON.STAT:    1

    HERMIT 1- and 2-electron integral sections will be executed
    "Old" integral transformation used (limited to max 255 basis functions)
    Wave function sections will be executed (SIRIUS module)
    Dynamic molecular response properties section will be executed (RESPONSE module)
    Static molecular property section will be executed (ABACUS module)
 --------------------------------------------------------------------------------


   ****************************************************************************
   *************** Output of molecule and basis set information ***************
   ****************************************************************************


    The two title cards from your ".mol" input:
    ------------------------------------------------------------------------
 1: ---                                                                     
 2: ---                                                                     
    ------------------------------------------------------------------------

  Coordinates are entered in Angstrom and converted to atomic units.
          - Conversion factor : 1 bohr = 0.52917721 A

  Atomic type no.    1
  --------------------
  Nuclear charge:   3.00000
  Number of symmetry independent centers:    1
  Number of basis sets to read;    2
  Basis set file used for this atomic type with Z =   3 :
     "/home/eric/opt/apps/dalton/2016.2-g6.3.1-openblas-omp/dalton/basis/STO-3G"

  Atomic type no.    2
  --------------------
  Nuclear charge:   1.00000
  Number of symmetry independent centers:    1
  Number of basis sets to read;    2
  Basis set file used for this atomic type with Z =   1 :
     "/home/eric/opt/apps/dalton/2016.2-g6.3.1-openblas-omp/dalton/basis/STO-3G"


                         SYMGRP: Point group information
                         -------------------------------

@    Point group: C1 


                                 Isotopic Masses
                                 ---------------

                           Li          7.016005
                           H           1.007825

                       Total mass:     8.023830 amu
                       Natural abundance:  92.486 %

 Center-of-mass coordinates (a.u.):    0.000000    0.000000    0.378561


  Atoms and basis sets
  --------------------

  Number of atom types :    2
  Total number of atoms:    2

  Basis set used is "STO-3G" from the basis set library.

  label    atoms   charge   prim   cont     basis
  ----------------------------------------------------------------------
  Li          1    3.0000    15     5      [6s3p|2s1p]                                        
  H           1    1.0000     3     1      [3s|1s]                                            
  ----------------------------------------------------------------------
  total:      2    4.0000    18     6
  ----------------------------------------------------------------------

  Threshold for neglecting AO integrals:  1.00D-12


  Cartesian Coordinates (a.u.)
  ----------------------------

  Total number of coordinates:    6
  Li      :     1  x   0.0000000000    2  y   0.0000000000    3  z   0.0000000000
  H       :     4  x   0.0000000000    5  y   0.0000000000    6  z   3.0139241968


   Interatomic separations (in Angstrom):
   --------------------------------------

            Li          H     
            ------      ------
 Li    :    0.000000
 H     :    1.594900    0.000000


  Max    interatomic separation is    1.5949 Angstrom (    3.0139 Bohr)
  between atoms    2 and    1, "H     " and "Li    ".

  Min HX interatomic separation is    1.5949 Angstrom (    3.0139 Bohr)


  Bond distances (Angstrom):
  --------------------------

                  atom 1     atom 2       distance
                  ------     ------       --------
  bond distance:  H          Li           1.594900




 Principal moments of inertia (u*A**2) and principal axes
 --------------------------------------------------------

   IA       0.000000          0.000000    0.000000    1.000000
   IB       2.241611          0.000000    1.000000    0.000000
   IC       2.241611          1.000000    0.000000    0.000000


 Rotational constants
 --------------------

@    The molecule is linear.

               B =       225453.50 MHz     (    7.520319 cm-1)


@  Nuclear repulsion energy :    0.995380044141 Hartree


                     .---------------------------------------.
                     | Starting in Integral Section (HERMIT) |
                     `---------------------------------------'



 ***************************************************************************************
 ****************** Output from **INTEGRALS input processing (HERMIT) ******************
 ***************************************************************************************


 - Using defaults, no **INTEGRALS input found

 Default print level:        1

 * Nuclear model: Point charge

 Calculation of one- and two-electron Hamiltonian integrals.

 Center of mass  (bohr):      0.000000000000      0.000000000000      0.378560880975
 Operator center (bohr):      0.000000000000      0.000000000000      0.000000000000
 Gauge origin    (bohr):      0.000000000000      0.000000000000      0.000000000000
 Dipole origin   (bohr):      0.000000000000      0.000000000000      0.000000000000


     ************************************************************************
     ************************** Output from HERINT **************************
     ************************************************************************


 Threshold for neglecting two-electron integrals:  1.00D-12
 HERMIT - Number of two-electron integrals written:          83 ( 35.9% )
 HERMIT - Megabytes written:                              0.007

  Total CPU  time used in HERMIT:   0.01 seconds
  Total wall time used in HERMIT:   0.01 seconds


                        .----------------------------------.
                        | End of Integral Section (HERMIT) |
                        `----------------------------------'



                   .--------------------------------------------.
                   | Starting in Wave Function Section (SIRIUS) |
                   `--------------------------------------------'


 *** Output from Huckel module :

     Using EWMO model:          T
     Using EHT  model:          F
     Number of Huckel orbitals each symmetry:    6

 EWMO - Energy Weighted Maximum Overlap - is a Huckel type method,
        which normally is better than Extended Huckel Theory.
 Reference: Linderberg and Ohrn, Propagators in Quantum Chemistry (Wiley, 1973)

 Huckel EWMO eigenvalues for symmetry :  1
           -2.483511      -0.580537      -0.169653      -0.130000      -0.130000
           -0.070299

 **********************************************************************
 *SIRIUS* a direct, restricted step, second order MCSCF program       *
 **********************************************************************

 
     Date and time (Linux)  : Tue May  9 22:06:07 2017
     Host name              : copper                                  

 Title lines from ".mol" input file:
     ---                                                                     
     ---                                                                     

 Print level on unit LUPRI =   2 is   0
 Print level on unit LUW4  =   2 is   5

@    Restricted, closed shell Hartree-Fock calculation.

@    Time-dependent Hartree-Fock calculation (random phase approximation).

 Initial molecular orbitals are obtained according to
 ".MOSTART EWMO  " input option

     Wave function specification
     ============================
@    Wave function type        --- HF ---
@    Number of closed shell electrons           4
@    Number of electrons in active shells       0
@    Total charge of the molecule               0

@    Spin multiplicity and 2 M_S                1         0
@    Total number of symmetries                 1 (point group: C1 )
@    Reference state symmetry                   1 (irrep name : A  )

     Orbital specifications
     ======================
@    Abelian symmetry species          All |    1
@                                          |  A  
                                       --- |  ---
@    Occupied SCF orbitals               2 |    2
@    Secondary orbitals                  4 |    4
@    Total number of orbitals            6 |    6
@    Number of basis functions           6 |    6

     Optimization information
     ========================
@    Number of configurations                 1
@    Number of orbital rotations              8
     ------------------------------------------
@    Total number of variables                9

     Maximum number of Fock   iterations      0
     Maximum number of DIIS   iterations    200
     Maximum number of QC-SCF iterations     60
     Threshold for SCF convergence     1.00D-07


 ***********************************************
 ***** DIIS acceleration of SCF iterations *****
 ***********************************************

 C1-DIIS algorithm; max error vectors =    8

 Iter      Total energy        Error norm    Delta(E)  DIIS dim.
 -----------------------------------------------------------------------------
     (Precalculated two-electron integrals are transformed to P-supermatrix elements.
      Threshold for discarding integrals :  1.00D-12 )
@  1    -7.80828089195        5.56444D-01   -7.81D+00    1
      Virial theorem: -V/T =      1.948046
@      MULPOP Li      0.47; H      -0.47; 
   1  Level shift: doubly occupied orbital energies shifted by -2.00D-01
 -----------------------------------------------------------------------------
@  2    -7.85831882320        1.50209D-01   -5.00D-02    2
      Virial theorem: -V/T =      1.979699
@      MULPOP Li      0.11; H      -0.11; 
   2  Level shift: doubly occupied orbital energies shifted by -1.00D-01
 -----------------------------------------------------------------------------
@  3    -7.86198219053        1.64714D-02   -3.66D-03    3
      Virial theorem: -V/T =      1.987378
@      MULPOP Li     -0.00; H       0.00; 
   3  Level shift: doubly occupied orbital energies shifted by -2.50D-02
 -----------------------------------------------------------------------------
@  4    -7.86202691350        4.58016D-04   -4.47D-05    4
      Virial theorem: -V/T =      1.988157
@      MULPOP Li     -0.02; H       0.02; 
 -----------------------------------------------------------------------------
@  5    -7.86202695648        8.49866D-05   -4.30D-08    5
      Virial theorem: -V/T =      1.988168
@      MULPOP Li     -0.02; H       0.02; 
 -----------------------------------------------------------------------------
@  6    -7.86202696095        2.83331D-05   -4.47D-09    6
      Virial theorem: -V/T =      1.988165
@      MULPOP Li     -0.02; H       0.02; 
 -----------------------------------------------------------------------------
@  7    -7.86202696148        1.52929D-08   -5.36D-10    7

@ *** DIIS converged in   7 iterations !
@     Converged SCF energy, gradient:     -7.862026961483    1.53D-08
    - total time used in SIRFCK :              0.00 seconds


 *** SCF orbital energy analysis ***

 Number of electrons :    4
 Orbital occupations :    2

 Sym       Hartree-Fock orbital energies

1 A      -2.34864418    -0.28570474     0.07826185     0.16393843     0.16393843
          0.54912927

    E(LUMO) :     0.07826185 au (symmetry 1)
  - E(HOMO) :    -0.28570474 au (symmetry 1)
  ------------------------------------------
    gap     :     0.36396659 au

 --- Writing SIRIFC interface file

 CPU and wall time for SCF :       0.007       0.006


                       .-----------------------------------.
                       | --- Final results from SIRIUS --- |
                       `-----------------------------------'


@    Spin multiplicity:           1
@    Spatial symmetry:            1 ( irrep  A   in C1  )
@    Total charge of molecule:    0

@    Final HF energy:              -7.862026961483                 
@    Nuclear repulsion:             0.995380044141
@    Electronic energy:            -8.857407005624

@    Final gradient norm:           0.000000015293

 
     Date and time (Linux)  : Tue May  9 22:06:07 2017
     Host name              : copper                                  

File label for MO orbitals:   9May17   FOCKDIIS

 (Only coefficients > 0.0100 are printed.)

 Molecular orbitals for symmetry species 1  (A  )
 ------------------------------------------------

    Orbital         1        2        3        4        5        6
   1 Li  :1s    -0.9912   0.1674   0.2100   0.0000   0.0000  -0.0928
   2 Li  :1s    -0.0327  -0.4548  -0.7996  -0.0000  -0.0000   0.7047
   3 Li  :2px   -0.0000  -0.0000  -0.0000   0.9971   0.0761   0.0000
   4 Li  :2py   -0.0000  -0.0000  -0.0000  -0.0761   0.9971   0.0000
   5 Li  :2pz    0.0063  -0.3462   0.6121   0.0000  -0.0000   0.9810
   6 H   :1s    -0.0045  -0.5488   0.1398   0.0000   0.0000  -1.1874

  Total CPU  time used in SIRIUS :   0.01 seconds
  Total wall time used in SIRIUS :   0.01 seconds

 
     Date and time (Linux)  : Tue May  9 22:06:07 2017
     Host name              : copper                                  


                     .---------------------------------------.
                     | End of Wave Function Section (SIRIUS) |
                     `---------------------------------------'



                 .------------------------------------------------.
                 | Starting in Dynamic Property Section (RESPONS) |
                 `------------------------------------------------'


 ------------------------------------------------------------------------------
  RESPONSE  -  an MCSCF, MC-srDFT, DFT, and SOPPA response property program
 ------------------------------------------------------------------------------


 -------- OUTPUT FROM RESPONSE INPUT PROCESSING --------




  Linear Response single residue calculation
 -------------------------------------------


    5 input options by user.

 Print level                                    : IPRPP  =2000
 Maximum number of iterations for eigenval.eqs. : MAXITP =  60
 Threshold for convergence of eigenvalue eqs.   : THCPP  = 1.000D-03
 Maximum iterations in optimal orbital algorithm: MAXITO =   5

 SET UP E(2) AND S(2) EXPLICITLY. ABCHK =T

 General print level in RESPONS is IPRRSP =      2000

 **** Output from RSPSYM ****

 I, LPPOP(I), PRPLBL(I)  (for excitations)

    1         T  XDIPLEN 
    2         T  YDIPLEN 
    3         T  ZDIPLEN 

 I, LLROP(I), PRPLBL(I)  (for linear response)

    1         F  XDIPLEN 
    2         F  YDIPLEN 
    3         F  ZDIPLEN 

 I, LC6OP(I), PRPLBL(I)  (for C6/C8)

    1         F  XDIPLEN 
    2         F  YDIPLEN 
    3         F  ZDIPLEN 

 I, AQROP(I), BQROP(I), CQROP(I), PRPLBL(I)  (for quadratic response)

    1         F         F         F  XDIPLEN 
    2         F         F         F  YDIPLEN 
    3         F         F         F  ZDIPLEN 

 I, ASMOP(I), BSMOP(I), PRPLBL(I)  (for second mom.)

    1         F         F  XDIPLEN 
    2         F         F  YDIPLEN 
    3         F         F  ZDIPLEN 

 I, ESROPS(I), ESROPT(I), PRPLBL(I) (for ESR prop.)

    1         F         F  XDIPLEN 
    2         F         F  YDIPLEN 
    3         F         F  ZDIPLEN 

 I, ACROP(I), BCROP(I), CCROP(I), DCROP(I), PRPLBL(I)  (for cubic response)

    1         F         F         F         F  XDIPLEN 
    2         F         F         F         F  YDIPLEN 
    3         F         F         F         F  ZDIPLEN 

 I, ATMOP(I), BTMOP(I), CTMOP(I), PRPLBL(I)  (for third mom.)

    1         F         F         F  XDIPLEN 
    2         F         F         F  YDIPLEN 
    3         F         F         F  ZDIPLEN 

 I, ATPOP(I), BTPOP(I), PRPLBL(I) (for cubic double res.)

    1         F         F  XDIPLEN 
    2         F         F  YDIPLEN 
    3         F         F  ZDIPLEN 

 NPRLBL=    3 labels in property calculations in RESPONS:

  I      PRPLBL(I), I=1,NPRLBL 
    1     XDIPLEN 
    2     YDIPLEN 
    3     ZDIPLEN 

 RSPSYM: number of property vectors :

 NGPPP(I) ,I=1,NSYM    3
 NGPLR(I) ,I=1,NSYM    0
 NGPC6(I) ,I=1,NSYM    0
 NAQROP(I),I=1,NSYM    0
 NBQROP(I),I=1,NSYM    0
 NCQROP(I),I=1,NSYM    0
 NASMOP(I),I=1,NSYM    0
 NBSMOP(I),I=1,NSYM    0
 NESRS(I) ,I=1,NSYM    0
 NESRT(I) ,I=1,NSYM    0
 NACROP(I),I=1,NSYM    0
 NBCROP(I),I=1,NSYM    0
 NCCROP(I),I=1,NSYM    0
 NDCROP(I),I=1,NSYM    0
 NATMOP(I),I=1,NSYM    0
 NBTMOP(I),I=1,NSYM    0
 NCTMOP(I),I=1,NSYM    0
 NATPOP(I),I=1,NSYM    0
 NBTPOP(I),I=1,NSYM    0

      1 Excitation energies are calculated for symmetry no.    1

      3 property residues are calculated with labels:

               XDIPLEN 
               YDIPLEN 
               ZDIPLEN 

  SYMMETRY   NO.CONV  NO.START NO.SIMULT

         1         1         1         1

 Integral transformation: Total CPU and WALL times (sec)       0.000       0.001

 Sorting integrals to Dirac format: Total CPU and WALL times (sec)       0.000       0.022


   SCF energy         :       -7.862026961483483
 -- inactive part     :       -8.857407005624182
 -- nuclear repulsion :        0.995380044140699

 NISHT,NASHT,NORBT,NBAST,NCREF,IREFSY     2     0     6     6     1     1

 **** RSPMC **** MO coefficients read from SIRIFC for symmetry    1

               Column   1     Column   2     Column   3     Column   4     Column   5     Column   6
       1      -0.99124539     0.16742351     0.20997752     0.00000000     0.00000000    -0.09283829
       2      -0.03267810    -0.45479322    -0.79961717    -0.00000000    -0.00000000     0.70472487
       3      -0.00000000    -0.00000000    -0.00000000     0.99710022     0.07609959     0.00000000
       4      -0.00000000    -0.00000000    -0.00000000    -0.07609959     0.99710022     0.00000000
       5       0.00634709    -0.34619993     0.61213826     0.00000000    -0.00000000     0.98100084
       6      -0.00447029    -0.54878058     0.13979335     0.00000000     0.00000000    -1.18737439
    ==== End of matrix output ====


                     ***************************************
                     *** RHF response calculation (TDHF) ***
                     ***************************************

 ----------------------------------------------------------------
 ----- Linear response calculation
 ----- Symmetry of excitation/property operator(s)    1  ( A  )
 ----------------------------------------------------------------

 Number of excitations of this symmetry            1
 Number of response properties of this symmetry    0
 Number of C6/C8 properties of this symmetry       0


 Perturbation symmetry.     KSYMOP:       1
 Perturbation spin symmetry.TRPLET:       F
 Orbital variables.         KZWOPT:       8
 Configuration variables.   KZCONF:       0
 Total number of variables. KZVAR :       8

 KZYWOP,KZYCON,KZYVAR:      16       0      16

 FOCK CORE MATRIX

     *** Block  1 ***

               Column   1     Column   2     Column   3     Column   4     Column   5     Column   6
       1      -2.34864418
       2      -0.00000000    -0.28570474
       3      -0.00000000     0.00000000     0.07826185
       4       0.00000000    -0.00000000    -0.00000000     0.16393843
       5      -0.00000000    -0.00000000    -0.00000000    -0.00000000     0.16393843
       6      -0.00000000    -0.00000000    -0.00000000    -0.00000000    -0.00000000     0.54912927
    ==== End of matrix output ====

 TOTAL FOCK  MATRIX

     *** Block  1 ***

               Column   1     Column   2     Column   3     Column   4     Column   5     Column   6
       1      -4.69728836    -0.00000000    -0.00000000     0.00000000    -0.00000000    -0.00000000
       2      -0.00000000    -0.57140948     0.00000001    -0.00000000    -0.00000000    -0.00000000
    ==== End of matrix output ====
  DIAGONAL ORBITAL PART OF E(2) 

               Column   1
       1       4.85391205
       2       5.02526521
       3       5.02526521
       4       5.79564689
       5       0.72803317
       6       0.89938633
       7       0.89938633
       8       1.66976801
    ==== End of matrix output ====
  DIAGONAL ORBITAL PART OF S(2)

               Column   1
       1       2.00000000
       2       2.00000000
       3       2.00000000
       4       2.00000000
       5       2.00000000
       6       2.00000000
       7       2.00000000
       8       2.00000000
    ==== End of matrix output ====

 FOCK MATRIX CONTRIBUTION TO DIAGONAL ORBITAL PART OF E[2]

 (FOCK TYPE DECOUPLING OF TWO ELECTRON DENSITY MATRIX USED)

     Orbital operator symmetry = 1
     (only elements abs greater than 1.0D-01 times max abs value)

      Index(r,s)     r    s      operator value
      ----------    --   --      --------------
              1      1    3        4.8539120545
              2      1    4        5.0252652099
              3      1    5        5.0252652099
              4      1    6        5.7956468883
              5      2    3        0.7280331738
              6      2    4        0.8993863293
              7      2    5        0.8993863293
              8      2    6        1.6697680077

               Column   1
       1       4.85391205
       2       5.02526521
       3       5.02526521
       4       5.79564689
       5       0.72803317
       6       0.89938633
       7       0.89938633
       8       1.66976801
    ==== End of matrix output ====

 DIAGONAL ORBITAL PART OF S[2]

               Column   1
       1       2.00000000
       2       2.00000000
       3       2.00000000
       4       2.00000000
       5       2.00000000
       6       2.00000000
       7       2.00000000
       8       2.00000000
    ==== End of matrix output ====

 --- IN RSPPP:
  THCPP,MAXRM    1.0000000000000000E-003         600
  KSYMOP,NGPPP(KSYMOP)            1           3
  LWRK ,LWRK1     63999856    62918056
  KEXCNV,NSIM,LWRK2            1           1     1082005



 --- EXCITATION ENERGIES AND TRANSITION MOMENT CALCULATION (MCTDHF) ---

 Operator symmetry = 1  ( A  ); triplet =   F

  KLIDEN,KUSE,KMAXVE,LBINTM,NORBT,NASHT,KZYVAR,LWRK 
           1         114         212          21           6           0          16    62918056
  LACIMX           0

 MAXIMUM NUMBER OF SIMULTANEOUS TRIAL VECTORS:     120

 MAXIMUM NUMBER OF SIMULTANEOUS TRIAL VECTORS IN RSPNEX:     120

 ORBITAL TRIAL VECTOR

               Column   1
       1       1.00000000
    ==== End of matrix output ====
           1  ZYMAT MATRICES

               Column   1     Column   2     Column   3     Column   4     Column   5     Column   6
       3       1.00000000     0.00000000     0.00000000     0.00000000     0.00000000     0.00000000
    ==== End of matrix output ====


Output from "RSPOLI". NCSIM,NOSIM=         0         1
TRPLET,HSROHF,DFTADD         F         F         F
TDHF,NASHT         T         0

 FCOEX MULLIKEN DISTRIBUTION CONTRB FOR VECTOR     1

               Column   1     Column   2     Column   3     Column   4     Column   5     Column   6
       1      -0.13853107     0.01123066     0.00000000     0.00000000     0.00000000     0.00000000
       2       0.01334401    -0.00336348     0.00000000     0.00000000     0.00000000     0.00000000
       3       0.39565432    -0.01106530     0.00000000     0.00000000     0.00000000     0.00000000
       6       0.01764558    -0.00369353     0.00000000     0.00000000     0.00000000     0.00000000
    ==== End of matrix output ====

 DIRAC DISTRIBUTION : IC,ID        1       1

               Column   1     Column   2     Column   3     Column   4     Column   5     Column   6
       1       1.65855121    -0.11194578    -0.13853107     0.00000000     0.00000000     0.05262994
       2      -0.11194578     0.01339803     0.01123066     0.00000000     0.00000000    -0.00887780
       3      -0.13853107     0.01123066     0.02165552     0.00000000     0.00000000    -0.00230772
       4       0.00000000     0.00000000     0.00000000     0.00981794     0.00000000     0.00000000
       5       0.00000000     0.00000000     0.00000000     0.00000000     0.00981794     0.00000000
       6       0.05262994    -0.00887780    -0.00230772     0.00000000     0.00000000     0.00849057
    ==== End of matrix output ====
 NOSIM=           1

 DIRAC DISTRIBUTION : IC,ID        1       2

               Column   1     Column   2     Column   3     Column   4     Column   5     Column   6
       1      -0.11194578     0.01339803     0.01123066     0.00000000     0.00000000    -0.00887780
       2       0.36732231     0.00625931    -0.01592685     0.00000000     0.00000000    -0.00680422
       3       0.01334401    -0.00336348     0.00017929     0.00000000     0.00000000     0.00166948
       4       0.00000000     0.00000000     0.00000000     0.00749260     0.00000000     0.00000000
       5       0.00000000     0.00000000     0.00000000     0.00000000     0.00749260     0.00000000
       6      -0.04090241     0.00474223     0.00050041     0.00000000     0.00000000     0.00012775
    ==== End of matrix output ====
 NOSIM=           1

 DIRAC DISTRIBUTION : IC,ID        2       2

               Column   1     Column   2     Column   3     Column   4     Column   5     Column   6
       1       0.01339803     0.00625931    -0.00336348     0.00000000     0.00000000     0.00474223
       2       0.00625931     0.48766477    -0.04849325     0.00000000     0.00000000     0.12705745
       3      -0.00336348    -0.04849325     0.01301297     0.00000000     0.00000000    -0.03453980
       4       0.00000000     0.00000000     0.00000000     0.02345067     0.00000000     0.00000000
       5       0.00000000     0.00000000     0.00000000     0.00000000     0.02345067     0.00000000
       6       0.00474223     0.12705745    -0.03453980     0.00000000     0.00000000     0.12387125
    ==== End of matrix output ====
 NOSIM=           1

 FCOEX contribution for vector    1

               Column   1     Column   2     Column   3     Column   4     Column   5     Column   6
       1      -0.13853107     0.01123066     0.02165552     0.00000000     0.00000000    -0.00230772
       2       0.01334401    -0.00336348     0.00017929     0.00000000     0.00000000     0.00166948
       3       0.39565432    -0.01106530     0.00000000     0.00000000     0.00000000     0.00000000
       6       0.01764558    -0.00369353     0.00000000     0.00000000     0.00000000     0.00000000
    ==== End of matrix output ====

 FCOCO contribution for vector    1

               Column   1     Column   2     Column   3     Column   4     Column   5     Column   6
       1       0.13853107    -0.01123066     0.00000000     0.00000000     0.00000000     0.00000000
       2      -0.01123066     0.01592685     0.00000000     0.00000000     0.00000000     0.00000000
       3      -0.02165552    -0.00017929     0.00000000     0.00000000     0.00000000     0.00000000
       6       0.00230772    -0.00050041     0.00000000     0.00000000     0.00000000     0.00000000
    ==== End of matrix output ====
           1  ONE-INDEX TRANSFORMED FOCK CORE MATRIX BEFORE DIRECT [FC,ZYMAT] CONTRIBUTION

               Column   1     Column   2     Column   3     Column   4     Column   5
       1       0.13853107    -0.01123066    -0.02165552     0.00000000     0.00000000
       2      -0.00911730     0.02849022    -0.00017929     0.00000000     0.00000000
       3       0.35234327    -0.01142387     0.00000000     0.00000000     0.00000000
       6       0.02226101    -0.00469436     0.00000000     0.00000000     0.00000000

               Column   6
       1       0.00230772
       2       0.00066865
    ==== End of matrix output ====
           1  ONE-INDEX TRANSFORMED FOCK CORE MATRIX

               Column   1     Column   2     Column   3     Column   4     Column   5
       1       0.13853107    -0.01123066    -0.02165552     0.00000000     0.00000000
       2      -0.00911731     0.02849022    -0.00017929     0.00000000     0.00000000
       3      -2.07456276    -0.01142387    -0.00000000     0.00000000     0.00000000
       6       0.02226102    -0.00469436     0.00000000     0.00000000     0.00000000

               Column   6
       1       0.00230772
       2       0.00066865
    ==== End of matrix output ====
  CORE FOCK MATRIX 

     *** Block  1 ***

               Column   1     Column   2     Column   3     Column   4
       1      -2.34864418
       2      -0.00000000    -0.28570474
       3      -0.00000000     0.00000000     0.07826185
       4       0.00000000    -0.00000000    -0.00000000     0.16393843
       5      -0.00000000    -0.00000000    -0.00000000    -0.00000000
       6      -0.00000000    -0.00000000    -0.00000000    -0.00000000

               Column   5     Column   6
       5       0.16393843
       6      -0.00000000     0.54912927
    ==== End of matrix output ====

 FCX total contribution for vector    1

               Column   1     Column   2     Column   3     Column   4     Column   5     Column   6
       1       0.13853107    -0.01123066    -0.02165552     0.00000000     0.00000000     0.00230772
       2      -0.00911731     0.02849022    -0.00017929     0.00000000     0.00000000     0.00066865
       3      -2.07456276    -0.01142387    -0.00000000     0.00000000     0.00000000    -0.00000000
       6       0.02226102    -0.00469436     0.00000000     0.00000000     0.00000000     0.00000000
    ==== End of matrix output ====
  LINEAR TRANSFORMATION WITH  E(2) (Z1 Y1 Z1 Y2 ...)

               Column   1     Column   2
       1       4.14912552    -0.04331105
       4      -0.04452203     0.00461544
       5       0.02284775    -0.00035857
       8       0.00938873     0.00133730
    ==== End of matrix output ====
           1  ZYMAT MATRICES

               Column   1     Column   2     Column   3     Column   4     Column   5     Column   6
       3       1.00000000     0.00000000     0.00000000     0.00000000     0.00000000     0.00000000
    ==== End of matrix output ====
  LINEAR TRANSFORMATION WITH  S(2) (Z1 Y1 Z1 Y2 ...)

               Column   1     Column   2
       1       2.00000000     0.00000000
    ==== End of matrix output ====

 ORBITAL TRIAL VECTOR

               Column   1
       2       1.00000000
    ==== End of matrix output ====
           1  ZYMAT MATRICES

               Column   1     Column   2     Column   3     Column   4     Column   5     Column   6
       4       1.00000000     0.00000000     0.00000000     0.00000000     0.00000000     0.00000000
    ==== End of matrix output ====


Output from "RSPOLI". NCSIM,NOSIM=         0         1
TRPLET,HSROHF,DFTADD         F         F         F
TDHF,NASHT         T         0

 FCOEX MULLIKEN DISTRIBUTION CONTRB FOR VECTOR     1

               Column   1     Column   2     Column   3     Column   4     Column   5     Column   6
       4       0.39631892    -0.00436709     0.00000000     0.00000000     0.00000000     0.00000000
    ==== End of matrix output ====

 DIRAC DISTRIBUTION : IC,ID        1       1

               Column   1     Column   2     Column   3     Column   4     Column   5     Column   6
       1       1.65855121    -0.11194578    -0.13853107     0.00000000     0.00000000     0.05262994
       2      -0.11194578     0.01339803     0.01123066     0.00000000     0.00000000    -0.00887780
       3      -0.13853107     0.01123066     0.02165552     0.00000000     0.00000000    -0.00230772
       4       0.00000000     0.00000000     0.00000000     0.00981794     0.00000000     0.00000000
       5       0.00000000     0.00000000     0.00000000     0.00000000     0.00981794     0.00000000
       6       0.05262994    -0.00887780    -0.00230772     0.00000000     0.00000000     0.00849057
    ==== End of matrix output ====
 NOSIM=           1

 DIRAC DISTRIBUTION : IC,ID        1       2

               Column   1     Column   2     Column   3     Column   4     Column   5     Column   6
       1      -0.11194578     0.01339803     0.01123066     0.00000000     0.00000000    -0.00887780
       2       0.36732231     0.00625931    -0.01592685     0.00000000     0.00000000    -0.00680422
       3       0.01334401    -0.00336348     0.00017929     0.00000000     0.00000000     0.00166948
       4       0.00000000     0.00000000     0.00000000     0.00749260     0.00000000     0.00000000
       5       0.00000000     0.00000000     0.00000000     0.00000000     0.00749260     0.00000000
       6      -0.04090241     0.00474223     0.00050041     0.00000000     0.00000000     0.00012775
    ==== End of matrix output ====
 NOSIM=           1

 DIRAC DISTRIBUTION : IC,ID        2       2

               Column   1     Column   2     Column   3     Column   4     Column   5     Column   6
       1       0.01339803     0.00625931    -0.00336348     0.00000000     0.00000000     0.00474223
       2       0.00625931     0.48766477    -0.04849325     0.00000000     0.00000000     0.12705745
       3      -0.00336348    -0.04849325     0.01301297     0.00000000     0.00000000    -0.03453980
       4       0.00000000     0.00000000     0.00000000     0.02345067     0.00000000     0.00000000
       5       0.00000000     0.00000000     0.00000000     0.00000000     0.02345067     0.00000000
       6       0.00474223     0.12705745    -0.03453980     0.00000000     0.00000000     0.12387125
    ==== End of matrix output ====
 NOSIM=           1

 FCOEX contribution for vector    1

               Column   1     Column   2     Column   3     Column   4     Column   5     Column   6
       1       0.00000000     0.00000000     0.00000000     0.00981794     0.00000000     0.00000000
       2       0.00000000     0.00000000     0.00000000     0.00749260     0.00000000     0.00000000
       4       0.39631892    -0.00436709     0.00000000     0.00000000     0.00000000     0.00000000
    ==== End of matrix output ====

 FCOCO contribution for vector    1

               Column   1     Column   2     Column   3     Column   4     Column   5     Column   6
       4      -0.00981794    -0.00749260     0.00000000     0.00000000     0.00000000     0.00000000
    ==== End of matrix output ====
           1  ONE-INDEX TRANSFORMED FOCK CORE MATRIX BEFORE DIRECT [FC,ZYMAT] CONTRIBUTION

               Column   1     Column   2     Column   3     Column   4     Column   5
       1       0.00000000     0.00000000     0.00000000    -0.00981794     0.00000000
       2       0.00000000     0.00000000     0.00000000    -0.00749260     0.00000000
       4       0.37668304    -0.01935229     0.00000000     0.00000000     0.00000000

               Column   6
    ==== End of matrix output ====
           1  ONE-INDEX TRANSFORMED FOCK CORE MATRIX

               Column   1     Column   2     Column   3     Column   4     Column   5
       1       0.00000000     0.00000000     0.00000000    -0.00981794     0.00000000
       2       0.00000000     0.00000000     0.00000000    -0.00749260     0.00000000
       4      -2.13589957    -0.01935229    -0.00000000     0.00000000     0.00000000

               Column   6
    ==== End of matrix output ====
  CORE FOCK MATRIX 

     *** Block  1 ***

               Column   1     Column   2     Column   3     Column   4
       1      -2.34864418
       2      -0.00000000    -0.28570474
       3      -0.00000000     0.00000000     0.07826185
       4       0.00000000    -0.00000000    -0.00000000     0.16393843
       5      -0.00000000    -0.00000000    -0.00000000    -0.00000000
       6      -0.00000000    -0.00000000    -0.00000000    -0.00000000

               Column   5     Column   6
       5       0.16393843
       6      -0.00000000     0.54912927
    ==== End of matrix output ====

 FCX total contribution for vector    1

               Column   1     Column   2     Column   3     Column   4     Column   5     Column   6
       1       0.00000000     0.00000000     0.00000000    -0.00981794     0.00000000     0.00000000
       2       0.00000000     0.00000000     0.00000000    -0.00749260     0.00000000     0.00000000
       4      -2.13589957    -0.01935229    -0.00000000     0.00000000     0.00000000    -0.00000000
    ==== End of matrix output ====
  LINEAR TRANSFORMATION WITH  E(2) (Z1 Y1 Z1 Y2 ...)

               Column   1     Column   2
       2       4.27179914    -0.01963588
       6       0.03870459    -0.01498521
    ==== End of matrix output ====
           1  ZYMAT MATRICES

               Column   1     Column   2     Column   3     Column   4     Column   5     Column   6
       4       1.00000000     0.00000000     0.00000000     0.00000000     0.00000000     0.00000000
    ==== End of matrix output ====
  LINEAR TRANSFORMATION WITH  S(2) (Z1 Y1 Z1 Y2 ...)

               Column   1     Column   2
       2       2.00000000     0.00000000
    ==== End of matrix output ====

 ORBITAL TRIAL VECTOR

               Column   1
       3       1.00000000
    ==== End of matrix output ====
           1  ZYMAT MATRICES

               Column   1     Column   2     Column   3     Column   4     Column   5     Column   6
       5       1.00000000     0.00000000     0.00000000     0.00000000     0.00000000     0.00000000
    ==== End of matrix output ====


Output from "RSPOLI". NCSIM,NOSIM=         0         1
TRPLET,HSROHF,DFTADD         F         F         F
TDHF,NASHT         T         0

 FCOEX MULLIKEN DISTRIBUTION CONTRB FOR VECTOR     1

               Column   1     Column   2     Column   3     Column   4     Column   5     Column   6
       5       0.39631892    -0.00436709     0.00000000     0.00000000     0.00000000     0.00000000
    ==== End of matrix output ====

 DIRAC DISTRIBUTION : IC,ID        1       1

               Column   1     Column   2     Column   3     Column   4     Column   5     Column   6
       1       1.65855121    -0.11194578    -0.13853107     0.00000000     0.00000000     0.05262994
       2      -0.11194578     0.01339803     0.01123066     0.00000000     0.00000000    -0.00887780
       3      -0.13853107     0.01123066     0.02165552     0.00000000     0.00000000    -0.00230772
       4       0.00000000     0.00000000     0.00000000     0.00981794     0.00000000     0.00000000
       5       0.00000000     0.00000000     0.00000000     0.00000000     0.00981794     0.00000000
       6       0.05262994    -0.00887780    -0.00230772     0.00000000     0.00000000     0.00849057
    ==== End of matrix output ====
 NOSIM=           1

 DIRAC DISTRIBUTION : IC,ID        1       2

               Column   1     Column   2     Column   3     Column   4     Column   5     Column   6
       1      -0.11194578     0.01339803     0.01123066     0.00000000     0.00000000    -0.00887780
       2       0.36732231     0.00625931    -0.01592685     0.00000000     0.00000000    -0.00680422
       3       0.01334401    -0.00336348     0.00017929     0.00000000     0.00000000     0.00166948
       4       0.00000000     0.00000000     0.00000000     0.00749260     0.00000000     0.00000000
       5       0.00000000     0.00000000     0.00000000     0.00000000     0.00749260     0.00000000
       6      -0.04090241     0.00474223     0.00050041     0.00000000     0.00000000     0.00012775
    ==== End of matrix output ====
 NOSIM=           1

 DIRAC DISTRIBUTION : IC,ID        2       2

               Column   1     Column   2     Column   3     Column   4     Column   5     Column   6
       1       0.01339803     0.00625931    -0.00336348     0.00000000     0.00000000     0.00474223
       2       0.00625931     0.48766477    -0.04849325     0.00000000     0.00000000     0.12705745
       3      -0.00336348    -0.04849325     0.01301297     0.00000000     0.00000000    -0.03453980
       4       0.00000000     0.00000000     0.00000000     0.02345067     0.00000000     0.00000000
       5       0.00000000     0.00000000     0.00000000     0.00000000     0.02345067     0.00000000
       6       0.00474223     0.12705745    -0.03453980     0.00000000     0.00000000     0.12387125
    ==== End of matrix output ====
 NOSIM=           1

 FCOEX contribution for vector    1

               Column   1     Column   2     Column   3     Column   4     Column   5     Column   6
       1       0.00000000     0.00000000     0.00000000     0.00000000     0.00981794     0.00000000
       2       0.00000000     0.00000000     0.00000000     0.00000000     0.00749260     0.00000000
       5       0.39631892    -0.00436709     0.00000000     0.00000000     0.00000000     0.00000000
    ==== End of matrix output ====

 FCOCO contribution for vector    1

               Column   1     Column   2     Column   3     Column   4     Column   5     Column   6
       5      -0.00981794    -0.00749260     0.00000000     0.00000000     0.00000000     0.00000000
    ==== End of matrix output ====
           1  ONE-INDEX TRANSFORMED FOCK CORE MATRIX BEFORE DIRECT [FC,ZYMAT] CONTRIBUTION

               Column   1     Column   2     Column   3     Column   4     Column   5
       1       0.00000000     0.00000000     0.00000000     0.00000000    -0.00981794
       2       0.00000000     0.00000000     0.00000000     0.00000000    -0.00749260
       5       0.37668304    -0.01935229     0.00000000     0.00000000     0.00000000

               Column   6
    ==== End of matrix output ====
           1  ONE-INDEX TRANSFORMED FOCK CORE MATRIX

               Column   1     Column   2     Column   3     Column   4     Column   5
       1       0.00000000     0.00000000     0.00000000     0.00000000    -0.00981794
       2       0.00000000     0.00000000     0.00000000     0.00000000    -0.00749260
       5      -2.13589957    -0.01935229    -0.00000000     0.00000000     0.00000000

               Column   6
    ==== End of matrix output ====
  CORE FOCK MATRIX 

     *** Block  1 ***

               Column   1     Column   2     Column   3     Column   4
       1      -2.34864418
       2      -0.00000000    -0.28570474
       3      -0.00000000     0.00000000     0.07826185
       4       0.00000000    -0.00000000    -0.00000000     0.16393843
       5      -0.00000000    -0.00000000    -0.00000000    -0.00000000
       6      -0.00000000    -0.00000000    -0.00000000    -0.00000000

               Column   5     Column   6
       5       0.16393843
       6      -0.00000000     0.54912927
    ==== End of matrix output ====

 FCX total contribution for vector    1

               Column   1     Column   2     Column   3     Column   4     Column   5     Column   6
       1       0.00000000     0.00000000     0.00000000     0.00000000    -0.00981794     0.00000000
       2       0.00000000     0.00000000     0.00000000     0.00000000    -0.00749260     0.00000000
       5      -2.13589957    -0.01935229    -0.00000000     0.00000000     0.00000000    -0.00000000
    ==== End of matrix output ====
  LINEAR TRANSFORMATION WITH  E(2) (Z1 Y1 Z1 Y2 ...)

               Column   1     Column   2
       3       4.27179914    -0.01963588
       7       0.03870459    -0.01498521
    ==== End of matrix output ====
           1  ZYMAT MATRICES

               Column   1     Column   2     Column   3     Column   4     Column   5     Column   6
       5       1.00000000     0.00000000     0.00000000     0.00000000     0.00000000     0.00000000
    ==== End of matrix output ====
  LINEAR TRANSFORMATION WITH  S(2) (Z1 Y1 Z1 Y2 ...)

               Column   1     Column   2
       3       2.00000000     0.00000000
    ==== End of matrix output ====

 ORBITAL TRIAL VECTOR

               Column   1
       4       1.00000000
    ==== End of matrix output ====
           1  ZYMAT MATRICES

               Column   1     Column   2     Column   3     Column   4     Column   5     Column   6
       6       1.00000000     0.00000000     0.00000000     0.00000000     0.00000000     0.00000000
    ==== End of matrix output ====


Output from "RSPOLI". NCSIM,NOSIM=         0         1
TRPLET,HSROHF,DFTADD         F         F         F
TDHF,NASHT         T         0

 FCOEX MULLIKEN DISTRIBUTION CONTRB FOR VECTOR     1

               Column   1     Column   2     Column   3     Column   4     Column   5     Column   6
       1       0.05262994    -0.00887780     0.00000000     0.00000000     0.00000000     0.00000000
       2      -0.04090241     0.00474223     0.00000000     0.00000000     0.00000000     0.00000000
       3       0.01764558    -0.00369353     0.00000000     0.00000000     0.00000000     0.00000000
       6       0.36174304     0.00331770     0.00000000     0.00000000     0.00000000     0.00000000
    ==== End of matrix output ====

 DIRAC DISTRIBUTION : IC,ID        1       1

               Column   1     Column   2     Column   3     Column   4     Column   5     Column   6
       1       1.65855121    -0.11194578    -0.13853107     0.00000000     0.00000000     0.05262994
       2      -0.11194578     0.01339803     0.01123066     0.00000000     0.00000000    -0.00887780
       3      -0.13853107     0.01123066     0.02165552     0.00000000     0.00000000    -0.00230772
       4       0.00000000     0.00000000     0.00000000     0.00981794     0.00000000     0.00000000
       5       0.00000000     0.00000000     0.00000000     0.00000000     0.00981794     0.00000000
       6       0.05262994    -0.00887780    -0.00230772     0.00000000     0.00000000     0.00849057
    ==== End of matrix output ====
 NOSIM=           1

 DIRAC DISTRIBUTION : IC,ID        1       2

               Column   1     Column   2     Column   3     Column   4     Column   5     Column   6
       1      -0.11194578     0.01339803     0.01123066     0.00000000     0.00000000    -0.00887780
       2       0.36732231     0.00625931    -0.01592685     0.00000000     0.00000000    -0.00680422
       3       0.01334401    -0.00336348     0.00017929     0.00000000     0.00000000     0.00166948
       4       0.00000000     0.00000000     0.00000000     0.00749260     0.00000000     0.00000000
       5       0.00000000     0.00000000     0.00000000     0.00000000     0.00749260     0.00000000
       6      -0.04090241     0.00474223     0.00050041     0.00000000     0.00000000     0.00012775
    ==== End of matrix output ====
 NOSIM=           1

 DIRAC DISTRIBUTION : IC,ID        2       2

               Column   1     Column   2     Column   3     Column   4     Column   5     Column   6
       1       0.01339803     0.00625931    -0.00336348     0.00000000     0.00000000     0.00474223
       2       0.00625931     0.48766477    -0.04849325     0.00000000     0.00000000     0.12705745
       3      -0.00336348    -0.04849325     0.01301297     0.00000000     0.00000000    -0.03453980
       4       0.00000000     0.00000000     0.00000000     0.02345067     0.00000000     0.00000000
       5       0.00000000     0.00000000     0.00000000     0.00000000     0.02345067     0.00000000
       6       0.00474223     0.12705745    -0.03453980     0.00000000     0.00000000     0.12387125
    ==== End of matrix output ====
 NOSIM=           1

 FCOEX contribution for vector    1

               Column   1     Column   2     Column   3     Column   4     Column   5     Column   6
       1       0.05262994    -0.00887780    -0.00230772     0.00000000     0.00000000     0.00849057
       2      -0.04090241     0.00474223     0.00050041     0.00000000     0.00000000     0.00012775
       3       0.01764558    -0.00369353     0.00000000     0.00000000     0.00000000     0.00000000
       6       0.36174304     0.00331770     0.00000000     0.00000000     0.00000000     0.00000000
    ==== End of matrix output ====

 FCOCO contribution for vector    1

               Column   1     Column   2     Column   3     Column   4     Column   5     Column   6
       1      -0.05262994     0.00887780     0.00000000     0.00000000     0.00000000     0.00000000
       2       0.00887780     0.00680422     0.00000000     0.00000000     0.00000000     0.00000000
       3       0.00230772    -0.00166948     0.00000000     0.00000000     0.00000000     0.00000000
       6      -0.00849057    -0.00012775     0.00000000     0.00000000     0.00000000     0.00000000
    ==== End of matrix output ====
           1  ONE-INDEX TRANSFORMED FOCK CORE MATRIX BEFORE DIRECT [FC,ZYMAT] CONTRIBUTION

               Column   1     Column   2     Column   3     Column   4     Column   5
       1      -0.05262994     0.00887780     0.00230772     0.00000000     0.00000000
       2      -0.02314680     0.01835067    -0.00283855     0.00000000     0.00000000
       3       0.02226101    -0.00703250     0.00000000     0.00000000     0.00000000
       6       0.34476190     0.00306220     0.00000000     0.00000000     0.00000000

               Column   6
       1      -0.00849057
       2      -0.00012775
    ==== End of matrix output ====
           1  ONE-INDEX TRANSFORMED FOCK CORE MATRIX

               Column   1     Column   2     Column   3     Column   4     Column   5
       1      -0.05262994     0.00887780     0.00230772     0.00000000     0.00000000
       2      -0.02314680     0.01835067    -0.00283855     0.00000000     0.00000000
       3       0.02226102    -0.00703250     0.00000000     0.00000000     0.00000000
       6      -2.55301154     0.00306220    -0.00000000     0.00000000     0.00000000

               Column   6
       1      -0.00849057
       2      -0.00012775
    ==== End of matrix output ====
  CORE FOCK MATRIX 

     *** Block  1 ***

               Column   1     Column   2     Column   3     Column   4
       1      -2.34864418
       2      -0.00000000    -0.28570474
       3      -0.00000000     0.00000000     0.07826185
       4       0.00000000    -0.00000000    -0.00000000     0.16393843
       5      -0.00000000    -0.00000000    -0.00000000    -0.00000000
       6      -0.00000000    -0.00000000    -0.00000000    -0.00000000

               Column   5     Column   6
       5       0.16393843
       6      -0.00000000     0.54912927
    ==== End of matrix output ====

 FCX total contribution for vector    1

               Column   1     Column   2     Column   3     Column   4     Column   5     Column   6
       1      -0.05262994     0.00887780     0.00230772     0.00000000     0.00000000    -0.00849057
       2      -0.02314680     0.01835067    -0.00283855     0.00000000     0.00000000    -0.00012775
       3       0.02226102    -0.00703250     0.00000000     0.00000000     0.00000000     0.00000000
       6      -2.55301154     0.00306220    -0.00000000     0.00000000     0.00000000    -0.00000000
    ==== End of matrix output ====
  LINEAR TRANSFORMATION WITH  E(2) (Z1 Y1 Z1 Y2 ...)

               Column   1     Column   2
       1      -0.04452203     0.00461544
       4       5.10602308    -0.01698113
       5       0.01406499    -0.00567709
       8      -0.00612440    -0.00025550
    ==== End of matrix output ====
           1  ZYMAT MATRICES

               Column   1     Column   2     Column   3     Column   4     Column   5     Column   6
       6       1.00000000     0.00000000     0.00000000     0.00000000     0.00000000     0.00000000
    ==== End of matrix output ====
  LINEAR TRANSFORMATION WITH  S(2) (Z1 Y1 Z1 Y2 ...)

               Column   1     Column   2
       4       2.00000000     0.00000000
    ==== End of matrix output ====

 ORBITAL TRIAL VECTOR

               Column   1
       5       1.00000000
    ==== End of matrix output ====
           1  ZYMAT MATRICES

               Column   1     Column   2     Column   3     Column   4     Column   5     Column   6
       3       0.00000000     1.00000000     0.00000000     0.00000000     0.00000000     0.00000000
    ==== End of matrix output ====


Output from "RSPOLI". NCSIM,NOSIM=         0         1
TRPLET,HSROHF,DFTADD         F         F         F
TDHF,NASHT         T         0

 FCOEX MULLIKEN DISTRIBUTION CONTRB FOR VECTOR     1

               Column   1     Column   2     Column   3     Column   4     Column   5     Column   6
       1       0.01123066    -0.01592685     0.00000000     0.00000000     0.00000000     0.00000000
       2      -0.00336348    -0.04849325     0.00000000     0.00000000     0.00000000     0.00000000
       3      -0.01106530     0.22375594     0.00000000     0.00000000     0.00000000     0.00000000
       6      -0.00369353    -0.05134026     0.00000000     0.00000000     0.00000000     0.00000000
    ==== End of matrix output ====

 DIRAC DISTRIBUTION : IC,ID        1       1

               Column   1     Column   2     Column   3     Column   4     Column   5     Column   6
       1       1.65855121    -0.11194578    -0.13853107     0.00000000     0.00000000     0.05262994
       2      -0.11194578     0.01339803     0.01123066     0.00000000     0.00000000    -0.00887780
       3      -0.13853107     0.01123066     0.02165552     0.00000000     0.00000000    -0.00230772
       4       0.00000000     0.00000000     0.00000000     0.00981794     0.00000000     0.00000000
       5       0.00000000     0.00000000     0.00000000     0.00000000     0.00981794     0.00000000
       6       0.05262994    -0.00887780    -0.00230772     0.00000000     0.00000000     0.00849057
    ==== End of matrix output ====
 NOSIM=           1

 DIRAC DISTRIBUTION : IC,ID        1       2

               Column   1     Column   2     Column   3     Column   4     Column   5     Column   6
       1      -0.11194578     0.01339803     0.01123066     0.00000000     0.00000000    -0.00887780
       2       0.36732231     0.00625931    -0.01592685     0.00000000     0.00000000    -0.00680422
       3       0.01334401    -0.00336348     0.00017929     0.00000000     0.00000000     0.00166948
       4       0.00000000     0.00000000     0.00000000     0.00749260     0.00000000     0.00000000
       5       0.00000000     0.00000000     0.00000000     0.00000000     0.00749260     0.00000000
       6      -0.04090241     0.00474223     0.00050041     0.00000000     0.00000000     0.00012775
    ==== End of matrix output ====
 NOSIM=           1

 DIRAC DISTRIBUTION : IC,ID        2       2

               Column   1     Column   2     Column   3     Column   4     Column   5     Column   6
       1       0.01339803     0.00625931    -0.00336348     0.00000000     0.00000000     0.00474223
       2       0.00625931     0.48766477    -0.04849325     0.00000000     0.00000000     0.12705745
       3      -0.00336348    -0.04849325     0.01301297     0.00000000     0.00000000    -0.03453980
       4       0.00000000     0.00000000     0.00000000     0.02345067     0.00000000     0.00000000
       5       0.00000000     0.00000000     0.00000000     0.00000000     0.02345067     0.00000000
       6       0.00474223     0.12705745    -0.03453980     0.00000000     0.00000000     0.12387125
    ==== End of matrix output ====
 NOSIM=           1

 FCOEX contribution for vector    1

               Column   1     Column   2     Column   3     Column   4     Column   5     Column   6
       1       0.01123066    -0.01592685     0.00017929     0.00000000     0.00000000     0.00050041
       2      -0.00336348    -0.04849325     0.01301297     0.00000000     0.00000000    -0.03453980
       3      -0.01106530     0.22375594     0.00000000     0.00000000     0.00000000     0.00000000
       6      -0.00369353    -0.05134026     0.00000000     0.00000000     0.00000000     0.00000000
    ==== End of matrix output ====

 FCOCO contribution for vector    1

               Column   1     Column   2     Column   3     Column   4     Column   5     Column   6
       1      -0.01334401     0.00336348     0.00000000     0.00000000     0.00000000     0.00000000
       2       0.00336348     0.04849325     0.00000000     0.00000000     0.00000000     0.00000000
       3      -0.00017929    -0.01301297     0.00000000     0.00000000     0.00000000     0.00000000
       6      -0.00166948     0.03453980     0.00000000     0.00000000     0.00000000     0.00000000
    ==== End of matrix output ====
           1  ONE-INDEX TRANSFORMED FOCK CORE MATRIX BEFORE DIRECT [FC,ZYMAT] CONTRIBUTION

               Column   1     Column   2     Column   3     Column   4     Column   5
       1      -0.01545736    -0.00919989    -0.00017929     0.00000000     0.00000000
       2       0.00336348     0.04849325    -0.01301297     0.00000000     0.00000000
       3      -0.01142387     0.19773001     0.00000000     0.00000000     0.00000000
       6      -0.00703250     0.01773935     0.00000000     0.00000000     0.00000000

               Column   6
       1      -0.00283855
       2       0.03453980
    ==== End of matrix output ====
           1  ONE-INDEX TRANSFORMED FOCK CORE MATRIX

               Column   1     Column   2     Column   3     Column   4     Column   5
       1      -0.01545736    -0.00919989    -0.00017929     0.00000000     0.00000000
       2       0.00336348     0.04849325    -0.01301297     0.00000000     0.00000000
       3      -0.01142387    -0.16623658     0.00000000     0.00000000     0.00000000
       6      -0.00703250     0.01773935     0.00000000     0.00000000     0.00000000

               Column   6
       1      -0.00283855
       2       0.03453980
    ==== End of matrix output ====
  CORE FOCK MATRIX 

     *** Block  1 ***

               Column   1     Column   2     Column   3     Column   4
       1      -2.34864418
       2      -0.00000000    -0.28570474
       3      -0.00000000     0.00000000     0.07826185
       4       0.00000000    -0.00000000    -0.00000000     0.16393843
       5      -0.00000000    -0.00000000    -0.00000000    -0.00000000
       6      -0.00000000    -0.00000000    -0.00000000    -0.00000000

               Column   5     Column   6
       5       0.16393843
       6      -0.00000000     0.54912927
    ==== End of matrix output ====

 FCX total contribution for vector    1

               Column   1     Column   2     Column   3     Column   4     Column   5     Column   6
       1      -0.01545736    -0.00919989    -0.00017929     0.00000000     0.00000000    -0.00283855
       2       0.00336348     0.04849325    -0.01301297     0.00000000     0.00000000     0.03453980
       3      -0.01142387    -0.16623658     0.00000000     0.00000000     0.00000000    -0.00000000
       6      -0.00703250     0.01773935     0.00000000     0.00000000     0.00000000     0.00000000
    ==== End of matrix output ====
  LINEAR TRANSFORMATION WITH  E(2) (Z1 Y1 Z1 Y2 ...)

               Column   1     Column   2
       1       0.02284775    -0.00035857
       4       0.01406499    -0.00567709
       5       0.33247316    -0.02602593
       8      -0.03547871     0.06907961
    ==== End of matrix output ====
           1  ZYMAT MATRICES

               Column   1     Column   2     Column   3     Column   4     Column   5     Column   6
       3       0.00000000     1.00000000     0.00000000     0.00000000     0.00000000     0.00000000
    ==== End of matrix output ====
  LINEAR TRANSFORMATION WITH  S(2) (Z1 Y1 Z1 Y2 ...)

               Column   1     Column   2
       5       2.00000000     0.00000000
    ==== End of matrix output ====

 ORBITAL TRIAL VECTOR

               Column   1
       6       1.00000000
    ==== End of matrix output ====
           1  ZYMAT MATRICES

               Column   1     Column   2     Column   3     Column   4     Column   5     Column   6
       4       0.00000000     1.00000000     0.00000000     0.00000000     0.00000000     0.00000000
    ==== End of matrix output ====


Output from "RSPOLI". NCSIM,NOSIM=         0         1
TRPLET,HSROHF,DFTADD         F         F         F
TDHF,NASHT         T         0

 FCOEX MULLIKEN DISTRIBUTION CONTRB FOR VECTOR     1

               Column   1     Column   2     Column   3     Column   4     Column   5     Column   6
       4      -0.00436709     0.27042310     0.00000000     0.00000000     0.00000000     0.00000000
    ==== End of matrix output ====

 DIRAC DISTRIBUTION : IC,ID        1       1

               Column   1     Column   2     Column   3     Column   4     Column   5     Column   6
       1       1.65855121    -0.11194578    -0.13853107     0.00000000     0.00000000     0.05262994
       2      -0.11194578     0.01339803     0.01123066     0.00000000     0.00000000    -0.00887780
       3      -0.13853107     0.01123066     0.02165552     0.00000000     0.00000000    -0.00230772
       4       0.00000000     0.00000000     0.00000000     0.00981794     0.00000000     0.00000000
       5       0.00000000     0.00000000     0.00000000     0.00000000     0.00981794     0.00000000
       6       0.05262994    -0.00887780    -0.00230772     0.00000000     0.00000000     0.00849057
    ==== End of matrix output ====
 NOSIM=           1

 DIRAC DISTRIBUTION : IC,ID        1       2

               Column   1     Column   2     Column   3     Column   4     Column   5     Column   6
       1      -0.11194578     0.01339803     0.01123066     0.00000000     0.00000000    -0.00887780
       2       0.36732231     0.00625931    -0.01592685     0.00000000     0.00000000    -0.00680422
       3       0.01334401    -0.00336348     0.00017929     0.00000000     0.00000000     0.00166948
       4       0.00000000     0.00000000     0.00000000     0.00749260     0.00000000     0.00000000
       5       0.00000000     0.00000000     0.00000000     0.00000000     0.00749260     0.00000000
       6      -0.04090241     0.00474223     0.00050041     0.00000000     0.00000000     0.00012775
    ==== End of matrix output ====
 NOSIM=           1

 DIRAC DISTRIBUTION : IC,ID        2       2

               Column   1     Column   2     Column   3     Column   4     Column   5     Column   6
       1       0.01339803     0.00625931    -0.00336348     0.00000000     0.00000000     0.00474223
       2       0.00625931     0.48766477    -0.04849325     0.00000000     0.00000000     0.12705745
       3      -0.00336348    -0.04849325     0.01301297     0.00000000     0.00000000    -0.03453980
       4       0.00000000     0.00000000     0.00000000     0.02345067     0.00000000     0.00000000
       5       0.00000000     0.00000000     0.00000000     0.00000000     0.02345067     0.00000000
       6       0.00474223     0.12705745    -0.03453980     0.00000000     0.00000000     0.12387125
    ==== End of matrix output ====
 NOSIM=           1

 FCOEX contribution for vector    1

               Column   1     Column   2     Column   3     Column   4     Column   5     Column   6
       1       0.00000000     0.00000000     0.00000000     0.00749260     0.00000000     0.00000000
       2       0.00000000     0.00000000     0.00000000     0.02345067     0.00000000     0.00000000
       4      -0.00436709     0.27042310     0.00000000     0.00000000     0.00000000     0.00000000
    ==== End of matrix output ====

 FCOCO contribution for vector    1

               Column   1     Column   2     Column   3     Column   4     Column   5     Column   6
       4      -0.00749260    -0.02345067     0.00000000     0.00000000     0.00000000     0.00000000
    ==== End of matrix output ====
           1  ONE-INDEX TRANSFORMED FOCK CORE MATRIX BEFORE DIRECT [FC,ZYMAT] CONTRIBUTION

               Column   1     Column   2     Column   3     Column   4     Column   5
       1       0.00000000     0.00000000     0.00000000    -0.00749260     0.00000000
       2       0.00000000     0.00000000     0.00000000    -0.02345067     0.00000000
       4      -0.01935229     0.22352177     0.00000000     0.00000000     0.00000000

               Column   6
    ==== End of matrix output ====
           1  ONE-INDEX TRANSFORMED FOCK CORE MATRIX

               Column   1     Column   2     Column   3     Column   4     Column   5
       1       0.00000000     0.00000000     0.00000000    -0.00749260     0.00000000
       2       0.00000000     0.00000000     0.00000000    -0.02345067     0.00000000
       4      -0.01935229    -0.22612140     0.00000000     0.00000000     0.00000000

               Column   6
    ==== End of matrix output ====
  CORE FOCK MATRIX 

     *** Block  1 ***

               Column   1     Column   2     Column   3     Column   4
       1      -2.34864418
       2      -0.00000000    -0.28570474
       3      -0.00000000     0.00000000     0.07826185
       4       0.00000000    -0.00000000    -0.00000000     0.16393843
       5      -0.00000000    -0.00000000    -0.00000000    -0.00000000
       6      -0.00000000    -0.00000000    -0.00000000    -0.00000000

               Column   5     Column   6
       5       0.16393843
       6      -0.00000000     0.54912927
    ==== End of matrix output ====

 FCX total contribution for vector    1

               Column   1     Column   2     Column   3     Column   4     Column   5     Column   6
       1       0.00000000     0.00000000     0.00000000    -0.00749260     0.00000000     0.00000000
       2       0.00000000     0.00000000     0.00000000    -0.02345067     0.00000000     0.00000000
       4      -0.01935229    -0.22612140     0.00000000     0.00000000     0.00000000    -0.00000000
    ==== End of matrix output ====
  LINEAR TRANSFORMATION WITH  E(2) (Z1 Y1 Z1 Y2 ...)

               Column   1     Column   2
       2       0.03870459    -0.01498521
       6       0.45224280    -0.04690133
    ==== End of matrix output ====
           1  ZYMAT MATRICES

               Column   1     Column   2     Column   3     Column   4     Column   5     Column   6
       4       0.00000000     1.00000000     0.00000000     0.00000000     0.00000000     0.00000000
    ==== End of matrix output ====
  LINEAR TRANSFORMATION WITH  S(2) (Z1 Y1 Z1 Y2 ...)

               Column   1     Column   2
       6       2.00000000     0.00000000
    ==== End of matrix output ====

 ORBITAL TRIAL VECTOR

               Column   1
       7       1.00000000
    ==== End of matrix output ====
           1  ZYMAT MATRICES

               Column   1     Column   2     Column   3     Column   4     Column   5     Column   6
       5       0.00000000     1.00000000     0.00000000     0.00000000     0.00000000     0.00000000
    ==== End of matrix output ====


Output from "RSPOLI". NCSIM,NOSIM=         0         1
TRPLET,HSROHF,DFTADD         F         F         F
TDHF,NASHT         T         0

 FCOEX MULLIKEN DISTRIBUTION CONTRB FOR VECTOR     1

               Column   1     Column   2     Column   3     Column   4     Column   5     Column   6
       5      -0.00436709     0.27042310     0.00000000     0.00000000     0.00000000     0.00000000
    ==== End of matrix output ====

 DIRAC DISTRIBUTION : IC,ID        1       1

               Column   1     Column   2     Column   3     Column   4     Column   5     Column   6
       1       1.65855121    -0.11194578    -0.13853107     0.00000000     0.00000000     0.05262994
[...]
       6       0.00000000     0.00000000     0.00435975     0.00000000     0.00000000    -0.01000794     0.00000000     0.00000000
       7       0.00000000     0.00000000     0.00000000     0.00435975    -0.01000794     0.00000000     0.00000000     0.00000000
       8      -0.00243580     0.00186414     0.00000000     0.00000000     0.00000000     0.00000000    -0.00117061    -0.00130712
       9      -0.70651055    -0.70611618     0.00000000     0.00000000     0.00000000     0.00000000    -0.02861598     0.03712166
      10       0.00000000     0.00000000     0.70709334     0.00000000     0.00000000     0.70703595     0.00000000     0.00000000
      11       0.00000000     0.00000000     0.00000000     0.70709334     0.70703595     0.00000000     0.00000000     0.00000000
      12      -0.02861278    -0.03710730     0.00000000     0.00000000     0.00000000     0.00000000     0.70652569    -0.70612505
      13      -0.00426830    -0.00441705     0.00000000     0.00000000     0.00000000     0.00000000     0.00109597    -0.00277221
      14       0.00000000     0.00000000     0.00435975     0.00000000     0.00000000     0.01000794     0.00000000     0.00000000
      15       0.00000000     0.00000000     0.00000000     0.00435975     0.01000794     0.00000000     0.00000000     0.00000000
      16      -0.00243580    -0.00186414     0.00000000     0.00000000     0.00000000     0.00000000    -0.00117061     0.00130712
    ==== End of matrix output ====


 NUMBER OF EIGENVALUES WITH POSITIVE, ZERO, AND NEGATIVE METRIC:   16    0    0

 THE EIGENVALUES WITH POSITIVE METRIC:
      NUMBER      EIGENVALUE
         1      3.04701192D-01
         2      3.48813048D-01
         3      4.05195220D-01
         4      4.05195220D-01
         5      4.98384162D-01
         6      4.98384162D-01
         7      1.01086820D+00
         8      1.51423402D+00
         9      4.10437115D+00
        10      4.19002075D+00
        11      4.25230950D+00
        12      4.25230950D+00
        13      4.29219499D+00
        14      4.29219499D+00
        15      5.09068184D+00
        16      5.12567578D+00

 ********************************
 CHECK EIGENVALUES OF S2 WITH RSPRED ROUTINE 

 RSPRED: REDUCED HESSIAN MATRIX:

               Column   1     Column   2     Column   3     Column   4     Column   5     Column   6
       1       2.00000000
       2       0.00000000     2.00000000
       3       0.00000000     0.00000000     2.00000000
       4       0.00000000     0.00000000     0.00000000     2.00000000
       5       0.00000000     0.00000000     0.00000000     0.00000000     2.00000000
       6       0.00000000     0.00000000     0.00000000     0.00000000     0.00000000     2.00000000

               Column   7     Column   8     Column   9     Column  10     Column  11     Column  12
       7       2.00000000
       8       0.00000000     2.00000000
       9       0.00000000     0.00000000    -2.00000000
      10       0.00000000     0.00000000     0.00000000    -2.00000000
      11       0.00000000     0.00000000     0.00000000     0.00000000    -2.00000000
      12       0.00000000     0.00000000     0.00000000     0.00000000     0.00000000    -2.00000000

               Column  13     Column  14     Column  15     Column  16
      13      -2.00000000
      14       0.00000000    -2.00000000
      15       0.00000000     0.00000000    -2.00000000
      16       0.00000000     0.00000000     0.00000000    -2.00000000
    ==== End of matrix output ====

 RSPRED: REDUCED METRIC MATRIX:

               Column   1     Column   2     Column   3     Column   4     Column   5     Column   6
       1       1.00000000
       2       0.00000000     1.00000000
       3       0.00000000     0.00000000     1.00000000
       4       0.00000000     0.00000000     0.00000000     1.00000000
       5       0.00000000     0.00000000     0.00000000     0.00000000     1.00000000
       6       0.00000000     0.00000000     0.00000000     0.00000000     0.00000000     1.00000000

               Column   7     Column   8     Column   9     Column  10     Column  11     Column  12
       7       1.00000000
       8       0.00000000     1.00000000
       9       0.00000000     0.00000000     1.00000000
      10       0.00000000     0.00000000     0.00000000     1.00000000
      11       0.00000000     0.00000000     0.00000000     0.00000000     1.00000000
      12       0.00000000     0.00000000     0.00000000     0.00000000     0.00000000     1.00000000

               Column  13     Column  14     Column  15     Column  16
      13       1.00000000
      14       0.00000000     1.00000000
      15       0.00000000     0.00000000     1.00000000
      16       0.00000000     0.00000000     0.00000000     1.00000000
    ==== End of matrix output ====

 REDUCED EIGENVECTORS BEFORE ORDERING:

               Column   1     Column   2     Column   3     Column   4     Column   5     Column   6     Column   7     Column   8
       1       1.00000000     0.00000000     0.00000000     0.00000000     0.00000000     0.00000000     0.00000000     0.00000000
       2       0.00000000     1.00000000     0.00000000     0.00000000     0.00000000     0.00000000     0.00000000     0.00000000
       3       0.00000000     0.00000000     1.00000000     0.00000000     0.00000000     0.00000000     0.00000000     0.00000000
       4       0.00000000     0.00000000     0.00000000     1.00000000     0.00000000     0.00000000     0.00000000     0.00000000
       5       0.00000000     0.00000000     0.00000000     0.00000000     1.00000000     0.00000000     0.00000000     0.00000000
       6       0.00000000     0.00000000     0.00000000     0.00000000     0.00000000     1.00000000     0.00000000     0.00000000
       7       0.00000000     0.00000000     0.00000000     0.00000000     0.00000000     0.00000000     1.00000000     0.00000000
       8       0.00000000     0.00000000     0.00000000     0.00000000     0.00000000     0.00000000     0.00000000     1.00000000

               Column   9     Column  10     Column  11     Column  12     Column  13     Column  14     Column  15     Column  16
       9       1.00000000     0.00000000     0.00000000     0.00000000     0.00000000     0.00000000     0.00000000     0.00000000
      10       0.00000000     1.00000000     0.00000000     0.00000000     0.00000000     0.00000000     0.00000000     0.00000000
      11       0.00000000     0.00000000     1.00000000     0.00000000     0.00000000     0.00000000     0.00000000     0.00000000
      12       0.00000000     0.00000000     0.00000000     1.00000000     0.00000000     0.00000000     0.00000000     0.00000000
      13       0.00000000     0.00000000     0.00000000     0.00000000     1.00000000     0.00000000     0.00000000     0.00000000
      14       0.00000000     0.00000000     0.00000000     0.00000000     0.00000000     1.00000000     0.00000000     0.00000000
      15       0.00000000     0.00000000     0.00000000     0.00000000     0.00000000     0.00000000     1.00000000     0.00000000
      16       0.00000000     0.00000000     0.00000000     0.00000000     0.00000000     0.00000000     0.00000000     1.00000000
    ==== End of matrix output ====

 REDUCED EIGENVALUES (2,KZRED):

               Column   1     Column   2     Column   3     Column   4     Column   5     Column   6     Column   7     Column   8
       1       2.00000000     2.00000000     2.00000000     2.00000000    -2.00000000    -2.00000000    -2.00000000    -2.00000000
       2       2.00000000     2.00000000     2.00000000     2.00000000    -2.00000000    -2.00000000    -2.00000000    -2.00000000
    ==== End of matrix output ====


     (ALFAR + i ALFAI) / BETA are eigenvalues;
   I      ALFAR           ALFAI          BETA
    1   2.000000D+00   0.000000D+00   1.000000D+00
    2   2.000000D+00   0.000000D+00   1.000000D+00
    3   2.000000D+00   0.000000D+00   1.000000D+00
    4   2.000000D+00   0.000000D+00   1.000000D+00
    5   2.000000D+00   0.000000D+00   1.000000D+00
    6   2.000000D+00   0.000000D+00   1.000000D+00
    7   2.000000D+00   0.000000D+00   1.000000D+00
    8   2.000000D+00   0.000000D+00   1.000000D+00
    9  -2.000000D+00   0.000000D+00   1.000000D+00
   10  -2.000000D+00   0.000000D+00   1.000000D+00
   11  -2.000000D+00   0.000000D+00   1.000000D+00
   12  -2.000000D+00   0.000000D+00   1.000000D+00
   13  -2.000000D+00   0.000000D+00   1.000000D+00
   14  -2.000000D+00   0.000000D+00   1.000000D+00
   15  -2.000000D+00   0.000000D+00   1.000000D+00
   16  -2.000000D+00   0.000000D+00   1.000000D+00

 Unsorted eigenvalues of [ E(2) , S(2) ] :
         1   2.000000D+00
         2   2.000000D+00
         3   2.000000D+00
         4   2.000000D+00
         5   2.000000D+00
         6   2.000000D+00
         7   2.000000D+00
         8   2.000000D+00
         9  -2.000000D+00
        10  -2.000000D+00
        11  -2.000000D+00
        12  -2.000000D+00
        13  -2.000000D+00
        14  -2.000000D+00
        15  -2.000000D+00
        16  -2.000000D+00

 Reduced S(2) in eigenvector basis :

               Column   1     Column   2     Column   3     Column   4     Column   5     Column   6     Column   7     Column   8
       1       1.00000000     0.00000000     0.00000000     0.00000000     0.00000000     0.00000000     0.00000000     0.00000000
       2       0.00000000     1.00000000     0.00000000     0.00000000     0.00000000     0.00000000     0.00000000     0.00000000
       3       0.00000000     0.00000000     1.00000000     0.00000000     0.00000000     0.00000000     0.00000000     0.00000000
       4       0.00000000     0.00000000     0.00000000     1.00000000     0.00000000     0.00000000     0.00000000     0.00000000
       5       0.00000000     0.00000000     0.00000000     0.00000000     1.00000000     0.00000000     0.00000000     0.00000000
       6       0.00000000     0.00000000     0.00000000     0.00000000     0.00000000     1.00000000     0.00000000     0.00000000
       7       0.00000000     0.00000000     0.00000000     0.00000000     0.00000000     0.00000000     1.00000000     0.00000000
       8       0.00000000     0.00000000     0.00000000     0.00000000     0.00000000     0.00000000     0.00000000     1.00000000

               Column   9     Column  10     Column  11     Column  12     Column  13     Column  14     Column  15     Column  16
       9       1.00000000     0.00000000     0.00000000     0.00000000     0.00000000     0.00000000     0.00000000     0.00000000
      10       0.00000000     1.00000000     0.00000000     0.00000000     0.00000000     0.00000000     0.00000000     0.00000000
      11       0.00000000     0.00000000     1.00000000     0.00000000     0.00000000     0.00000000     0.00000000     0.00000000
      12       0.00000000     0.00000000     0.00000000     1.00000000     0.00000000     0.00000000     0.00000000     0.00000000
      13       0.00000000     0.00000000     0.00000000     0.00000000     1.00000000     0.00000000     0.00000000     0.00000000
      14       0.00000000     0.00000000     0.00000000     0.00000000     0.00000000     1.00000000     0.00000000     0.00000000
      15       0.00000000     0.00000000     0.00000000     0.00000000     0.00000000     0.00000000     1.00000000     0.00000000
      16       0.00000000     0.00000000     0.00000000     0.00000000     0.00000000     0.00000000     0.00000000     1.00000000
    ==== End of matrix output ====

 *** EIGENVECTORS WITH POSITIVE METRIC:    16
 *** EIGENVECTORS WITH ZERO METRIC:         0
 *** EIGENVECTORS WITH NEGATIVE METRIC:     0

 **WARNING** number of eigenvalues with negative metric differ from number with positive metric.
 Dimension of reduced matrix =   16

   NUMBER    EIGENVALUE 
         1     -2.00000000D+00
         2     -2.00000000D+00
         3     -2.00000000D+00
         4     -2.00000000D+00
         5     -2.00000000D+00
         6     -2.00000000D+00
         7     -2.00000000D+00
         8     -2.00000000D+00
         9      2.00000000D+00
        10      2.00000000D+00
        11      2.00000000D+00
        12      2.00000000D+00
        13      2.00000000D+00
        14      2.00000000D+00
        15      2.00000000D+00
        16      2.00000000D+00
 S[2] reduced matrix

               Column   1     Column   2     Column   3     Column   4     Column   5     Column   6
       1       1.00000000
       2       0.00000000     1.00000000
       3       0.00000000     0.00000000     1.00000000
       4       0.00000000     0.00000000     0.00000000     1.00000000
       5       0.00000000     0.00000000     0.00000000     0.00000000     1.00000000
       6       0.00000000     0.00000000     0.00000000     0.00000000     0.00000000     1.00000000

               Column   7     Column   8     Column   9     Column  10     Column  11     Column  12
       7       1.00000000
       8       0.00000000     1.00000000
       9       0.00000000     0.00000000     1.00000000
      10       0.00000000     0.00000000     0.00000000     1.00000000
      11       0.00000000     0.00000000     0.00000000     0.00000000     1.00000000
      12       0.00000000     0.00000000     0.00000000     0.00000000     0.00000000     1.00000000

               Column  13     Column  14     Column  15     Column  16
      13       1.00000000
      14       0.00000000     1.00000000
      15       0.00000000     0.00000000     1.00000000
      16       0.00000000     0.00000000     0.00000000     1.00000000
    ==== End of matrix output ====
 The eigenvalues of S[2] reduced matri

               Column   1     Column   2     Column   3     Column   4     Column   5     Column   6     Column   7     Column   8
       1       1.00000000     1.00000000     1.00000000     1.00000000     1.00000000     1.00000000     1.00000000     1.00000000
       2       1.00000000     1.00000000     1.00000000     1.00000000     1.00000000     1.00000000     1.00000000     1.00000000
    ==== End of matrix output ====
 E[2] reduced matrix

               Column   1     Column   2     Column   3     Column   4     Column   5     Column   6
       1       2.00000000
       2       0.00000000     2.00000000
       3       0.00000000     0.00000000     2.00000000
       4       0.00000000     0.00000000     0.00000000     2.00000000
       5       0.00000000     0.00000000     0.00000000     0.00000000     2.00000000
       6       0.00000000     0.00000000     0.00000000     0.00000000     0.00000000     2.00000000

               Column   7     Column   8     Column   9     Column  10     Column  11     Column  12
       7       2.00000000
       8       0.00000000     2.00000000
       9       0.00000000     0.00000000    -2.00000000
      10       0.00000000     0.00000000     0.00000000    -2.00000000
      11       0.00000000     0.00000000     0.00000000     0.00000000    -2.00000000
      12       0.00000000     0.00000000     0.00000000     0.00000000     0.00000000    -2.00000000

               Column  13     Column  14     Column  15     Column  16
      13      -2.00000000
      14       0.00000000    -2.00000000
      15       0.00000000     0.00000000    -2.00000000
      16       0.00000000     0.00000000     0.00000000    -2.00000000
    ==== End of matrix output ====
 The eigenvalues of E[2] reduced matrix

               Column   1     Column   2     Column   3     Column   4     Column   5     Column   6     Column   7     Column   8
       1       2.00000000     2.00000000     2.00000000     2.00000000    -2.00000000    -2.00000000    -2.00000000    -2.00000000
       2       2.00000000     2.00000000     2.00000000     2.00000000    -2.00000000    -2.00000000    -2.00000000    -2.00000000
    ==== End of matrix output ====

 REDUCED EIGENVECTORS AFTER ORDERING:

               Column   1     Column   2     Column   3     Column   4     Column   5     Column   6     Column   7     Column   8
       9       1.00000000     0.00000000     0.00000000     0.00000000     0.00000000     0.00000000     0.00000000     0.00000000
      10       0.00000000     1.00000000     0.00000000     0.00000000     0.00000000     0.00000000     0.00000000     0.00000000
      11       0.00000000     0.00000000     1.00000000     0.00000000     0.00000000     0.00000000     0.00000000     0.00000000
      12       0.00000000     0.00000000     0.00000000     1.00000000     0.00000000     0.00000000     0.00000000     0.00000000
      13       0.00000000     0.00000000     0.00000000     0.00000000     1.00000000     0.00000000     0.00000000     0.00000000
      14       0.00000000     0.00000000     0.00000000     0.00000000     0.00000000     1.00000000     0.00000000     0.00000000
      15       0.00000000     0.00000000     0.00000000     0.00000000     0.00000000     0.00000000     1.00000000     0.00000000
      16       0.00000000     0.00000000     0.00000000     0.00000000     0.00000000     0.00000000     0.00000000     1.00000000

               Column   9     Column  10     Column  11     Column  12     Column  13     Column  14     Column  15     Column  16
       1       1.00000000     0.00000000     0.00000000     0.00000000     0.00000000     0.00000000     0.00000000     0.00000000
       2       0.00000000     1.00000000     0.00000000     0.00000000     0.00000000     0.00000000     0.00000000     0.00000000
       3       0.00000000     0.00000000     1.00000000     0.00000000     0.00000000     0.00000000     0.00000000     0.00000000
       4       0.00000000     0.00000000     0.00000000     1.00000000     0.00000000     0.00000000     0.00000000     0.00000000
       5       0.00000000     0.00000000     0.00000000     0.00000000     1.00000000     0.00000000     0.00000000     0.00000000
       6       0.00000000     0.00000000     0.00000000     0.00000000     0.00000000     1.00000000     0.00000000     0.00000000
       7       0.00000000     0.00000000     0.00000000     0.00000000     0.00000000     0.00000000     1.00000000     0.00000000
       8       0.00000000     0.00000000     0.00000000     0.00000000     0.00000000     0.00000000     0.00000000     1.00000000
    ==== End of matrix output ====


 NUMBER OF EIGENVALUES WITH POSITIVE, ZERO, AND NEGATIVE METRIC:   16    0    0

 THE EIGENVALUES WITH POSITIVE METRIC:
      NUMBER      EIGENVALUE
         1     -2.00000000D+00
         2     -2.00000000D+00
         3     -2.00000000D+00
         4     -2.00000000D+00
         5     -2.00000000D+00
         6     -2.00000000D+00
         7     -2.00000000D+00
         8     -2.00000000D+00
         9      2.00000000D+00
        10      2.00000000D+00
        11      2.00000000D+00
        12      2.00000000D+00
        13      2.00000000D+00
        14      2.00000000D+00
        15      2.00000000D+00
        16      2.00000000D+00


 QEXIT error, exit ID does not match entry ID
 ----- stack pt =     5
 ----- entry ID =RSPES2      
 ----- exit  ID =RPES2

 Stack dump follows:


 QDUMP calls QTRACE for dump of internal trace stack


 QTRACE dump of internal trace stack

 ========================
      level    module
 ========================
          5    RSPES2      
          4    RSPCTL      
          3    RSPDRV      
          2    DALTON      
          1    DALTON main 
 ========================


  --- SEVERE ERROR, PROGRAM WILL BE ABORTED ---
     Date and time (Linux)  : Tue May  9 22:06:07 2017
     Host name              : copper                                  

 Reason: QEXIT error, exit ID does not match entry ID

  Total CPU  time used in DALTON:   0.05 seconds
  Total wall time used in DALTON:   0.16 seconds


 QTRACE dump of internal trace stack

 ========================
      level    module
 ========================
          5    RSPES2      
          4    RSPCTL      
          3    RSPDRV      
          2    DALTON      
          1    DALTON main 
 ========================

