 argument  1 = nwchem_singlet_tda.in
                                         
                                         


              Northwest Computational Chemistry Package (NWChem) 6.6
              ------------------------------------------------------


                    Environmental Molecular Sciences Laboratory
                       Pacific Northwest National Laboratory
                                Richland, WA 99352

                              Copyright (c) 1994-2015
                       Pacific Northwest National Laboratory
                            Battelle Memorial Institute

             NWChem is an open-source computational chemistry package
                        distributed under the terms of the
                      Educational Community License (ECL) 2.0
             A copy of the license is included with this distribution
                              in the LICENSE.TXT file

                                  ACKNOWLEDGMENT
                                  --------------

            This software and its documentation were developed at the
            EMSL at Pacific Northwest National Laboratory, a multiprogram
            national laboratory, operated for the U.S. Department of Energy
            by Battelle under Contract Number DE-AC05-76RL01830. Support
            for this work was provided by the Department of Energy Office
            of Biological and Environmental Research, Office of Basic
            Energy Sciences, and the Office of Advanced Scientific Computing.


           Job information
           ---------------

    hostname        = copper
    program         = /usr/bin/nwchem
    date            = Mon Apr  3 20:35:13 2017

    compiled        = Sun_Feb_14_13:23:17_2016
    source          = /build/nwchem-XLLp2O/nwchem-6.6+r27746
    nwchem branch   = 6.6
    nwchem revision = 27746
    ga revision     = 10594
    input           = nwchem_singlet_tda.in
    prefix          = nwchem_singlet_tda.
    data base       = ./nwchem_singlet_tda.db
    status          = startup
    nproc           =        1
    time left       =     -1s



           Memory information
           ------------------

    heap     =   13107198 doubles =    100.0 Mbytes
    stack    =   13107195 doubles =    100.0 Mbytes
    global   =   26214400 doubles =    200.0 Mbytes (distinct from heap & stack)
    total    =   52428793 doubles =    400.0 Mbytes
    verify   = yes
    hardfail = no 


           Directory information
           ---------------------

  0 permanent = .
  0 scratch   = .




                                NWChem Input Module
                                -------------------



 Scaling coordinates for geometry "geometry" by  1.889725989
 (inverse scale =  0.529177249)

 C1  symmetry detected

          ------
          auto-z
          ------


                             Geometry "geometry" -> ""
                             -------------------------

 Output coordinates in angstroms (scale by  1.889725989 to convert to a.u.)

  No.       Tag          Charge          X              Y              Z
 ---- ---------------- ---------- -------------- -------------- --------------
    1 C                    6.0000     0.81639372     0.13106103    -0.07151958
    2 H                    1.0000     1.84575758    -0.02484107     0.24600537
    3 B                    5.0000    -0.40944336     0.90817897     0.03700672
    4 H                    1.0000    -1.14431576     1.84330325     0.04346789
    5 C                    6.0000    -0.36746613    -0.75858397     0.00873477
    6 H                    1.0000    -0.42150893    -1.52366545     0.79868706
    7 H                    1.0000    -0.92628163    -1.07055396    -0.89648506

      Atomic Mass 
      ----------- 

      C                 12.000000
      H                  1.007825
      B                 11.009310


 Effective nuclear repulsion energy (a.u.)      55.1334855264

            Nuclear Dipole moment (a.u.) 
            ----------------------------
        X                 Y               Z
 ---------------- ---------------- ----------------
    -0.0000000000     0.0000000000     0.0000000000



                                Z-matrix (autoz)
                                -------- 

 Units are Angstrom for bonds and degrees for angles

      Type          Name      I     J     K     L     M      Value
      ----------- --------  ----- ----- ----- ----- ----- ----------
    1 Stretch                  1     2                       1.08845
    2 Stretch                  1     3                       1.45546
    3 Stretch                  1     5                       1.48305
    4 Stretch                  3     4                       1.18934
    5 Stretch                  3     5                       1.66753
    6 Stretch                  5     6                       1.10104
    7 Stretch                  5     7                       1.10861
    8 Bend                     1     3     4               160.15437
    9 Bend                     1     3     5                56.20987
   10 Bend                     1     5     3                54.64877
   11 Bend                     1     5     6               119.65932
   12 Bend                     1     5     7               121.80294
   13 Bend                     2     1     3               148.34671
   14 Bend                     2     1     5               130.78488
   15 Bend                     3     1     5                69.14136
   16 Bend                     3     5     6               132.93359
   17 Bend                     3     5     7               106.40534
   18 Bend                     4     3     5               143.27711
   19 Bend                     6     5     7               111.44127
   20 Torsion                  1     3     5     6          99.71201
   21 Torsion                  1     3     5     7        -117.69084
   22 Torsion                  1     5     3     4         174.72245
   23 Torsion                  2     1     3     4          53.76362
   24 Torsion                  2     1     3     5        -135.55978
   25 Torsion                  2     1     5     3         150.96981
   26 Torsion                  2     1     5     6          27.11524
   27 Torsion                  2     1     5     7        -120.88901
   28 Torsion                  3     1     5     6        -123.85457
   29 Torsion                  3     1     5     7          88.14117
   30 Torsion                  4     3     1     5        -170.67660
   31 Torsion                  4     3     5     6         -85.56554
   32 Torsion                  4     3     5     7          57.03161


            XYZ format geometry
            -------------------
     7
 geometry
 C                     0.81639372     0.13106103    -0.07151958
 H                     1.84575758    -0.02484107     0.24600537
 B                    -0.40944336     0.90817897     0.03700672
 H                    -1.14431576     1.84330325     0.04346789
 C                    -0.36746613    -0.75858397     0.00873477
 H                    -0.42150893    -1.52366545     0.79868706
 H                    -0.92628163    -1.07055396    -0.89648506

 ==============================================================================
                                internuclear distances
 ------------------------------------------------------------------------------
       center one      |      center two      | atomic units |  angstroms
 ------------------------------------------------------------------------------
    2 H                |   1 C                |     2.05687  |     1.08845
    3 B                |   1 C                |     2.75042  |     1.45546
    4 H                |   3 B                |     2.24753  |     1.18934
    5 C                |   1 C                |     2.80256  |     1.48305
    5 C                |   3 B                |     3.15118  |     1.66753
    6 H                |   5 C                |     2.08067  |     1.10104
    7 H                |   5 C                |     2.09497  |     1.10861
 ------------------------------------------------------------------------------
                         number of included internuclear distances:          7
 ==============================================================================



 ==============================================================================
                                 internuclear angles
 ------------------------------------------------------------------------------
        center 1       |       center 2       |       center 3       |  degrees
 ------------------------------------------------------------------------------
    2 H                |   1 C                |   3 B                |   148.35
    2 H                |   1 C                |   5 C                |   130.78
    3 B                |   1 C                |   5 C                |    69.14
    1 C                |   3 B                |   4 H                |   160.15
    3 B                |   1 C                |   5 C                |    69.14
    4 H                |   3 B                |   5 C                |   143.28
    5 C                |   1 C                |   3 B                |    69.14
    1 C                |   5 C                |   6 H                |   119.66
    1 C                |   5 C                |   7 H                |   121.80
    3 B                |   5 C                |   6 H                |   132.93
    3 B                |   5 C                |   7 H                |   106.41
    6 H                |   5 C                |   7 H                |   111.44
 ------------------------------------------------------------------------------
                            number of included internuclear angles:         12
 ==============================================================================





 Summary of "ao basis" -> "" (cartesian)
 ------------------------------------------------------------------------------
       Tag                 Description            Shells   Functions and Types
 ---------------- ------------------------------  ------  ---------------------
 *                           sto-3g                   on all atoms 


  xc_inp: hfexch multiplicative factor not found.

                                 NWChem DFT Module
                                 -----------------


                      Basis "ao basis" -> "ao basis" (cartesian)
                      -----
  C (Carbon)
  ----------
            Exponent  Coefficients 
       -------------- ---------------------------------------------------------
  1 S  7.16168370E+01  0.154329
  1 S  1.30450960E+01  0.535328
  1 S  3.53051220E+00  0.444635

  2 S  2.94124940E+00 -0.099967
  2 S  6.83483100E-01  0.399513
  2 S  2.22289900E-01  0.700115

  3 P  2.94124940E+00  0.155916
  3 P  6.83483100E-01  0.607684
  3 P  2.22289900E-01  0.391957

  H (Hydrogen)
  ------------
            Exponent  Coefficients 
       -------------- ---------------------------------------------------------
  1 S  3.42525091E+00  0.154329
  1 S  6.23913730E-01  0.535328
  1 S  1.68855400E-01  0.444635

  B (Boron)
  ---------
            Exponent  Coefficients 
       -------------- ---------------------------------------------------------
  1 S  4.87911130E+01  0.154329
  1 S  8.88736220E+00  0.535328
  1 S  2.40526700E+00  0.444635

  2 S  2.23695610E+00 -0.099967
  2 S  5.19820500E-01  0.399513
  2 S  1.69061800E-01  0.700115

  3 P  2.23695610E+00  0.155916
  3 P  5.19820500E-01  0.607684
  3 P  1.69061800E-01  0.391957



 Summary of "ao basis" -> "ao basis" (cartesian)
 ------------------------------------------------------------------------------
       Tag                 Description            Shells   Functions and Types
 ---------------- ------------------------------  ------  ---------------------
 C                           sto-3g                  3        5   2s1p
 H                           sto-3g                  1        1   1s
 B                           sto-3g                  3        5   2s1p




 Summary of "ao basis" -> "ao basis" (cartesian)
 ------------------------------------------------------------------------------
       Tag                 Description            Shells   Functions and Types
 ---------------- ------------------------------  ------  ---------------------
 C                           sto-3g                  3        5   2s1p
 H                           sto-3g                  1        1   1s
 B                           sto-3g                  3        5   2s1p


  Caching 1-el integrals 

            General Information
            -------------------
          SCF calculation type: DFT
          Wavefunction type:  closed shell.
          No. of atoms     :     7
          No. of electrons :    20
           Alpha electrons :    10
            Beta electrons :    10
          Charge           :     1
          Spin multiplicity:     1
          Use of symmetry is: off; symmetry adaption is: off
          Maximum number of iterations:  30
          This is a Direct SCF calculation.
          AO basis - number of functions:    19
                     number of shells:    13
          Convergence on energy requested: 1.00D-06
          Convergence on density requested: 1.00D-05
          Convergence on gradient requested: 5.00D-04

              XC Information
              --------------
                     Hartree-Fock (Exact) Exchange  1.000          

          Convergence Information
          -----------------------
          Convergence aids based upon iterative change in 
          total energy or number of iterations. 
          Levelshifting, if invoked, occurs when the 
          HOMO/LUMO gap drops below (HL_TOL): 1.00D-02
          DIIS, if invoked, will attempt to extrapolate 
          using up to (NFOCK): 10 stored Fock matrices.

                    Damping( 0%)  Levelshifting(0.5)       DIIS
                  --------------- ------------------- ---------------
          dE  on:    start            ASAP                start   
          dE off:    2 iters         30 iters            30 iters 


      Screening Tolerance Information
      -------------------------------
          Density screening/tol_rho: 1.00D-10
          AO Gaussian exp screening on grid/accAOfunc:  14
          CD Gaussian exp screening on grid/accCDfunc:  20
          XC Gaussian exp screening on grid/accXCfunc:  20
          Schwarz screening/accCoul: 1.00D-08


      Superposition of Atomic Density Guess
      -------------------------------------

 Sum of atomic energies:        -100.38058866

 Renormalizing density from      21.00 to     20

      Non-variational initial energy
      ------------------------------

 Total energy =     -97.603774
 1-e energy   =    -234.054064
 2-e energy   =      81.316805
 HOMO         =      -0.494739
 LUMO         =      -0.357204

   Time after variat. SCF:      0.1
   Time prior to 1st pass:      0.1

           Memory utilization after 1st SCF pass: 
           Heap Space remaining (MW):       13.11            13105854
          Stack Space remaining (MW):       13.11            13106900

   convergence    iter        energy       DeltaE   RMS-Dens  Diis-err    time
 ---------------- ----- ----------------- --------- --------- ---------  ------
 d= 0,ls=0.0,diis     1   -101.0774355077 -1.56D+02  2.89D-02  1.66D-01     0.2
 d= 0,ls=0.0,diis     2   -101.1139195544 -3.65D-02  7.79D-03  1.35D-02     0.2
 d= 0,ls=0.0,diis     3   -101.1174836567 -3.56D-03  3.69D-03  1.86D-03     0.2
 d= 0,ls=0.0,diis     4   -101.1181723052 -6.89D-04  1.57D-03  2.20D-04     0.3
 d= 0,ls=0.0,diis     5   -101.1183353519 -1.63D-04  1.66D-03  1.12D-04     0.3
  Resetting Diis
 d= 0,ls=0.0,diis     6   -101.1184232061 -8.79D-05  6.58D-04  1.12D-05     0.4
 d= 0,ls=0.0,diis     7   -101.1184373480 -1.41D-05  1.31D-04  2.29D-06     0.4
 d= 0,ls=0.0,diis     8   -101.1184389447 -1.60D-06  2.06D-04  9.46D-07     0.4
 d= 0,ls=0.0,diis     9   -101.1184402379 -1.29D-06  6.37D-05  2.12D-07     0.5
 d= 0,ls=0.0,diis    10   -101.1184403856 -1.48D-07  5.04D-05  3.87D-08     0.5
 d= 0,ls=0.0,diis    11   -101.1184404294 -4.37D-08  3.23D-06  6.15D-10     0.6


         Total DFT energy =     -101.118440429379
      One electron energy =     -238.658865006419
           Coulomb energy =       97.689524104958
    Exchange-Corr. energy =      -15.282585054365
 Nuclear repulsion energy =       55.133485526447

 Numeric. integr. density =        0.000000000000

     Total iterative time =      0.5s



                       DFT Final Molecular Orbital Analysis
                       ------------------------------------

 Vector    1  Occ=2.000000D+00  E=-1.143044D+01
              MO Center=  8.2D-01,  1.3D-01, -7.1D-02, r^2= 2.7D-02
   Bfn.  Coefficient  Atom+Function         Bfn.  Coefficient  Atom+Function  
  ----- ------------  ---------------      ----- ------------  ---------------
     1      0.992544  1 C  s          

 Vector    2  Occ=2.000000D+00  E=-1.135806D+01
              MO Center= -3.7D-01, -7.6D-01,  8.7D-03, r^2= 2.7D-02
   Bfn.  Coefficient  Atom+Function         Bfn.  Coefficient  Atom+Function  
  ----- ------------  ---------------      ----- ------------  ---------------
    13      0.992165  5 C  s          

 Vector    3  Occ=2.000000D+00  E=-7.765504D+00
              MO Center= -4.1D-01,  9.1D-01,  3.7D-02, r^2= 4.0D-02
   Bfn.  Coefficient  Atom+Function         Bfn.  Coefficient  Atom+Function  
  ----- ------------  ---------------      ----- ------------  ---------------
     7      0.991084  3 B  s          

 Vector    4  Occ=2.000000D+00  E=-1.341215D+00
              MO Center=  1.4D-01, -1.5D-01, -2.1D-02, r^2= 1.0D+00
   Bfn.  Coefficient  Atom+Function         Bfn.  Coefficient  Atom+Function  
  ----- ------------  ---------------      ----- ------------  ---------------
     2      0.463698  1 C  s                 14      0.417596  5 C  s          
     1     -0.170008  1 C  s                  3     -0.162619  1 C  px         
    13     -0.158423  5 C  s                  8      0.154139  3 B  s          

 Vector    5  Occ=2.000000D+00  E=-1.046702D+00
              MO Center=  2.1D-01, -4.3D-01, -1.4D-02, r^2= 2.2D+00
   Bfn.  Coefficient  Atom+Function         Bfn.  Coefficient  Atom+Function  
  ----- ------------  ---------------      ----- ------------  ---------------
    14     -0.488681  5 C  s                  2      0.479465  1 C  s          
     6      0.233242  2 H  s                 19     -0.219528  7 H  s          
    18     -0.182882  6 H  s                 13      0.150258  5 C  s          

 Vector    6  Occ=2.000000D+00  E=-9.490153D-01
              MO Center=  5.4D-01, -1.9D-01,  1.0D-01, r^2= 2.0D+00
   Bfn.  Coefficient  Atom+Function         Bfn.  Coefficient  Atom+Function  
  ----- ------------  ---------------      ----- ------------  ---------------
     3      0.418810  1 C  px                 6      0.303452  2 H  s          
     8     -0.292991  3 B  s                 16     -0.274638  5 C  py         
    18      0.208137  6 H  s                  4     -0.204550  1 C  py         
    14      0.184371  5 C  s          

 Vector    7  Occ=2.000000D+00  E=-8.383174D-01
              MO Center= -4.1D-01,  4.8D-01, -9.3D-02, r^2= 2.5D+00
   Bfn.  Coefficient  Atom+Function         Bfn.  Coefficient  Atom+Function  
  ----- ------------  ---------------      ----- ------------  ---------------
     8      0.353194  3 B  s                 12      0.325231  4 H  s          
    15     -0.295745  5 C  px                19      0.263435  7 H  s          
     3      0.255862  1 C  px                17     -0.221564  5 C  pz         
    10      0.213821  3 B  py                 4      0.198081  1 C  py         
     6      0.160723  2 H  s          

 Vector    8  Occ=2.000000D+00  E=-8.171014D-01
              MO Center= -4.9D-01, -2.6D-01,  4.7D-02, r^2= 2.4D+00
   Bfn.  Coefficient  Atom+Function         Bfn.  Coefficient  Atom+Function  
  ----- ------------  ---------------      ----- ------------  ---------------
    17      0.499886  5 C  pz                18      0.307860  6 H  s          
    19     -0.301645  7 H  s                  8      0.285714  3 B  s          
    12      0.249180  4 H  s          

 Vector    9  Occ=2.000000D+00  E=-7.330578D-01
              MO Center=  2.1D-02,  2.7D-01,  1.2D-02, r^2= 2.1D+00
   Bfn.  Coefficient  Atom+Function         Bfn.  Coefficient  Atom+Function  
  ----- ------------  ---------------      ----- ------------  ---------------
     4      0.581098  1 C  py                 9      0.357868  3 B  px         
    15     -0.313918  5 C  px                12     -0.269529  4 H  s          
    16     -0.202689  5 C  py                18      0.181536  6 H  s          

 Vector   10  Occ=2.000000D+00  E=-6.430810D-01
              MO Center= -9.8D-02, -2.4D-03, -2.1D-03, r^2= 1.7D+00
   Bfn.  Coefficient  Atom+Function         Bfn.  Coefficient  Atom+Function  
  ----- ------------  ---------------      ----- ------------  ---------------
    16      0.430258  5 C  py                 5      0.362437  1 C  pz         
    10     -0.349948  3 B  py                15     -0.337375  5 C  px         
     2     -0.256866  1 C  s                 11      0.213342  3 B  pz         
     9     -0.200352  3 B  px                 3      0.191497  1 C  px         
     6      0.190212  2 H  s                 18     -0.157093  6 H  s          

 Vector   11  Occ=0.000000D+00  E=-2.015533D-01
              MO Center=  1.6D-01,  1.3D-01, -7.9D-02, r^2= 1.8D+00
   Bfn.  Coefficient  Atom+Function         Bfn.  Coefficient  Atom+Function  
  ----- ------------  ---------------      ----- ------------  ---------------
     5      0.653275  1 C  pz                11      0.392387  3 B  pz         
    19      0.284722  7 H  s                 15      0.237520  5 C  px         
     9      0.218939  3 B  px                10      0.209532  3 B  py         
    16     -0.191436  5 C  py                17     -0.191429  5 C  pz         
    18     -0.191571  6 H  s                  3     -0.181524  1 C  px         

 Vector   12  Occ=0.000000D+00  E= 2.130483D-02
              MO Center= -2.2D-02,  6.7D-01, -3.4D-02, r^2= 1.4D+00
   Bfn.  Coefficient  Atom+Function         Bfn.  Coefficient  Atom+Function  
  ----- ------------  ---------------      ----- ------------  ---------------
    11      0.903899  3 B  pz                 5     -0.595774  1 C  pz         
     2      0.248042  1 C  s                  6     -0.184762  2 H  s          

 Vector   13  Occ=0.000000D+00  E= 1.794732D-01
              MO Center= -3.6D-01,  1.2D-01,  4.8D-02, r^2= 1.6D+00
   Bfn.  Coefficient  Atom+Function         Bfn.  Coefficient  Atom+Function  
  ----- ------------  ---------------      ----- ------------  ---------------
    10      0.617394  3 B  py                 9      0.586814  3 B  px         
    15     -0.531253  5 C  px                 4     -0.471636  1 C  py         
    16      0.412389  5 C  py                17      0.387919  5 C  pz         
     8     -0.302384  3 B  s                 14      0.247151  5 C  s          
    18     -0.206807  6 H  s          

 Vector   14  Occ=0.000000D+00  E= 2.623603D-01
              MO Center=  1.6D-01,  8.4D-01,  1.0D-01, r^2= 2.2D+00
   Bfn.  Coefficient  Atom+Function         Bfn.  Coefficient  Atom+Function  
  ----- ------------  ---------------      ----- ------------  ---------------
     8      1.129400  3 B  s                  2     -0.961698  1 C  s          
    12     -0.667426  4 H  s                  6      0.573255  2 H  s          
     4     -0.382821  1 C  py                 9      0.352420  3 B  px         
     7     -0.209856  3 B  s                 17     -0.206155  5 C  pz         
    19     -0.174537  7 H  s                  5     -0.170176  1 C  pz         

 Vector   15  Occ=0.000000D+00  E= 3.290303D-01
              MO Center=  8.8D-02, -2.8D-01, -1.2D-01, r^2= 2.0D+00
   Bfn.  Coefficient  Atom+Function         Bfn.  Coefficient  Atom+Function  
  ----- ------------  ---------------      ----- ------------  ---------------
    14      1.196836  5 C  s                  2     -0.715254  1 C  s          
     4      0.599475  1 C  py                 8     -0.532421  3 B  s          
    19     -0.532969  7 H  s                  6      0.486508  2 H  s          
    12      0.322319  4 H  s                 15      0.301768  5 C  px         
    16      0.290705  5 C  py                18     -0.277739  6 H  s          

 Vector   16  Occ=0.000000D+00  E= 3.912468D-01
              MO Center=  1.3D-01, -1.2D-01,  2.3D-01, r^2= 3.2D+00
   Bfn.  Coefficient  Atom+Function         Bfn.  Coefficient  Atom+Function  
  ----- ------------  ---------------      ----- ------------  ---------------
    14      0.794101  5 C  s                 18     -0.755518  6 H  s          
     6     -0.711714  2 H  s                  3      0.642614  1 C  px         
    12     -0.614194  4 H  s                  8      0.504796  3 B  s          
    10      0.291523  3 B  py                16     -0.269944  5 C  py         
    17      0.254516  5 C  pz                 2      0.252462  1 C  s          

 Vector   17  Occ=0.000000D+00  E= 4.449495D-01
              MO Center= -4.9D-01, -8.0D-01, -3.6D-01, r^2= 1.3D+00
   Bfn.  Coefficient  Atom+Function         Bfn.  Coefficient  Atom+Function  
  ----- ------------  ---------------      ----- ------------  ---------------
    19      1.058370  7 H  s                 17      0.736984  5 C  pz         
    15      0.732627  5 C  px                 2     -0.428336  1 C  s          
    16      0.382548  5 C  py                 4      0.304438  1 C  py         
     5     -0.242895  1 C  pz                14     -0.235544  5 C  s          
     6      0.200752  2 H  s          

 Vector   18  Occ=0.000000D+00  E= 5.001433D-01
              MO Center= -2.8D-03, -6.3D-01,  2.6D-01, r^2= 2.1D+00
   Bfn.  Coefficient  Atom+Function         Bfn.  Coefficient  Atom+Function  
  ----- ------------  ---------------      ----- ------------  ---------------
    18      0.912019  6 H  s                 16      0.864446  5 C  py         
     3      0.599865  1 C  px                 6     -0.555813  2 H  s          
    17     -0.550813  5 C  pz                10      0.404696  3 B  py         
    12     -0.266550  4 H  s                 15      0.229942  5 C  px         
     5      0.194070  1 C  pz         

 Vector   19  Occ=0.000000D+00  E= 7.526215D-01
              MO Center= -1.0D-01,  7.3D-01,  1.6D-02, r^2= 1.6D+00
   Bfn.  Coefficient  Atom+Function         Bfn.  Coefficient  Atom+Function  
  ----- ------------  ---------------      ----- ------------  ---------------
     9      0.969569  3 B  px                10     -0.970150  3 B  py         
     3      0.941460  1 C  px                12      0.791202  4 H  s          
     2     -0.614274  1 C  s                  6     -0.442950  2 H  s          
     8      0.362847  3 B  s                  4     -0.353325  1 C  py         
    15      0.212676  5 C  px         


 center of mass
 --------------
 x =   0.01103787 y =   0.08162487 z =  -0.00739732

 moments of inertia (a.u.)
 ------------------
          87.960063839423          -0.000000000000           0.000000000000
          -0.000000000000          67.322299330511           0.000000000000
           0.000000000000           0.000000000000         143.908248352081

     Multipole analysis of the density
     ---------------------------------

     L   x y z        total         alpha         beta         nuclear
     -   - - -        -----         -----         ----         -------
     0   0 0 0      1.000000    -10.000000    -10.000000     21.000000

     1   1 0 0      0.194433      0.097217      0.097217     -0.000000
     1   0 1 0     -0.002339     -0.001169     -0.001169      0.000000
     1   0 0 1     -0.022837     -0.011419     -0.011419      0.000000

     2   2 0 0     -9.099178    -24.903489    -24.903489     40.707800
     2   1 1 0      0.102216      0.169007      0.169007     -0.235797
     2   1 0 1      0.767100     -0.424798     -0.424798      1.616697
     2   0 2 0     -9.608587    -30.776164    -30.776164     51.943741
     2   0 1 1      0.196367      0.296620      0.296620     -0.396874
     2   0 0 2    -10.585111     -8.045829     -8.045829      5.506546

                                NWChem TDDFT Module
                                -------------------


            General Information
            -------------------
           No. of orbitals :    38
            Alpha orbitals :    19
             Beta orbitals :    19
        Alpha frozen cores :     0
         Beta frozen cores :     0
     Alpha frozen virtuals :     0
      Beta frozen virtuals :     0
         Spin multiplicity :     1
    Number of AO functions :    19
        Use of symmetry is : off
      Symmetry adaption is : off
         Schwarz screening : 0.10D-07

              XC Information
              --------------
              Hartree-Fock (Exact) Exchange   1.00          

             TDDFT Information
             -----------------
          Calculation type : CIS               
         Wavefunction type : Restricted singlets
          No. of electrons :    20
           Alpha electrons :    10
            Beta electrons :    10
              No. of roots :    10
          Max subspacesize :  6000
            Max iterations :   100
               Target root :     1
           Target symmetry : none
      Symmetry restriction : off
                 Algorithm : Optimal
        Davidson threshold : 0.10D-03

            Memory Information
            ------------------
          Available GA space size is          26214039 doubles
          Available MA space size is          26213100 doubles
          Length of a trial vector is           90
          Algorithm : Incore multiple tensor contraction
          Estimated peak GA usage is           1650863 doubles
          Estimated peak MA usage is             51000 doubles

   10 smallest eigenvalue differences (eV) 
--------------------------------------------------------
  No. Spin  Occ  Vir  Irrep   E(Occ)    E(Vir)   E(Diff)
--------------------------------------------------------
    1    1   10   11 a        -0.643    -0.202    12.015
    2    1    9   11 a        -0.733    -0.202    14.463
    3    1    8   11 a        -0.817    -0.202    16.750
    4    1    7   11 a        -0.838    -0.202    17.327
    5    1   10   12 a        -0.643     0.021    18.079
    6    1    6   11 a        -0.949    -0.202    20.339
    7    1    9   12 a        -0.733     0.021    20.527
    8    1   10   13 a        -0.643     0.179    22.383
    9    1    8   12 a        -0.817     0.021    22.814
   10    1    5   11 a        -1.047    -0.202    22.998
--------------------------------------------------------

  Entering Davidson iterations
  Restricted singlet excited states

  Iter   NTrls   NConv    DeltaV     DeltaE      Time   
  ----  ------  ------  ---------  ---------  --------- 
    1     10       0     0.13E+00   0.10+100        0.1
    2     20       0     0.62E-01   0.30E-01        0.1
    3     30       0     0.34E-01   0.69E-02        0.1
    4     40       0     0.33E-01   0.14E-02        0.1
    5     50       4     0.13E-01   0.82E-03        0.1
    6     56       7     0.23E-02   0.73E-04        0.1
    7     59       9     0.66E-03   0.29E-05        0.1
    8     60       9     0.15E-03   0.18E-06        0.1
    9     61      10     0.56E-04   0.76E-08        0.1
  ----  ------  ------  ---------  ---------  --------- 
  Convergence criterion met

  Ground state a        -101.118440429379 a.u.

  ----------------------------------------------------------------------------
  Root   1 singlet a              0.125204912 a.u.                3.4070 eV 
  ----------------------------------------------------------------------------
     Transition Moments    X  0.42610   Y  0.13719   Z -0.09322
     Transition Moments   XX -0.31959  XY  0.12662  XZ -0.21198
     Transition Moments   YY -0.38500  YZ -0.55597  ZZ  0.66916
     Dipole Oscillator Strength                         0.01745

     Electric Transition Dipole:
            X    0.4260988   Y   0.1371873   Z  -0.0932181
     Magnetic Transition Dipole (Length):
            X   -0.4334401   Y  -0.0575542   Z  -0.0494760
     Magnetic Transition Dipole * 1/c :
            X   -0.0031630   Y  -0.0004200   Z  -0.0003610
     Rotatory Strength (1E-40 esu**2cm**2):          -88.6198716

     Occ.    6  a   ---  Virt.   11  a     -0.08740
     Occ.    8  a   ---  Virt.   11  a      0.05888
     Occ.    9  a   ---  Virt.   11  a      0.23544
     Occ.    9  a   ---  Virt.   13  a     -0.06071
     Occ.   10  a   ---  Virt.   11  a     -0.95068
     Occ.   10  a   ---  Virt.   12  a     -0.09450
  ----------------------------------------------------------------------------
  Root   2 singlet a              0.160125773 a.u.                4.3572 eV 
  ----------------------------------------------------------------------------
     Transition Moments    X -0.15434   Y -0.19927   Z  0.08260
     Transition Moments   XX -0.00713  XY -0.00545  XZ -0.45947
     Transition Moments   YY  0.41238  YZ -0.51850  ZZ -0.15084
     Dipole Oscillator Strength                         0.00751

     Electric Transition Dipole:
            X   -0.1543422   Y  -0.1992722   Z   0.0826012
     Magnetic Transition Dipole (Length):
            X   -0.3787679   Y   0.2656212   Z  -0.3858465
     Magnetic Transition Dipole * 1/c :
            X   -0.0027640   Y   0.0019383   Z  -0.0028157
     Rotatory Strength (1E-40 esu**2cm**2):          -12.4191989

     Occ.    5  a   ---  Virt.   11  a      0.06363
     Occ.    6  a   ---  Virt.   11  a     -0.08126
     Occ.    7  a   ---  Virt.   11  a      0.20306
     Occ.    7  a   ---  Virt.   12  a     -0.08916
     Occ.    8  a   ---  Virt.   12  a     -0.05227
     Occ.    9  a   ---  Virt.   11  a      0.92300
     Occ.    9  a   ---  Virt.   12  a     -0.12784
     Occ.    9  a   ---  Virt.   17  a     -0.05292
     Occ.   10  a   ---  Virt.   11  a      0.22964
     Occ.   10  a   ---  Virt.   13  a      0.05386
  ----------------------------------------------------------------------------
  Root   3 singlet a              0.304187646 a.u.                8.2774 eV 
  ----------------------------------------------------------------------------
     Transition Moments    X  0.06018   Y -0.06852   Z  0.12652
     Transition Moments   XX -0.47274  XY  0.24842  XZ  0.18793
     Transition Moments   YY  0.69580  YZ  1.07063  ZZ  0.17722
     Dipole Oscillator Strength                         0.00493

     Electric Transition Dipole:
            X    0.0601751   Y  -0.0685155   Z   0.1265185
     Magnetic Transition Dipole (Length):
            X    0.4306920   Y  -0.3417047   Z  -0.1467122
     Magnetic Transition Dipole * 1/c :
            X    0.0031429   Y  -0.0024935   Z  -0.0010706
     Rotatory Strength (1E-40 esu**2cm**2):           14.5052812

     Occ.    4  a   ---  Virt.   11  a      0.08859
     Occ.    5  a   ---  Virt.   11  a     -0.10227
     Occ.    6  a   ---  Virt.   11  a     -0.27957
     Occ.    6  a   ---  Virt.   12  a      0.09474
     Occ.    7  a   ---  Virt.   11  a     -0.74270
     Occ.    8  a   ---  Virt.   11  a     -0.10124
     Occ.    8  a   ---  Virt.   12  a     -0.08267
     Occ.    9  a   ---  Virt.   11  a      0.15035
     Occ.    9  a   ---  Virt.   12  a      0.15093
     Occ.   10  a   ---  Virt.   12  a      0.51082
     Occ.   10  a   ---  Virt.   13  a      0.08693
  ----------------------------------------------------------------------------
  Root   4 singlet a              0.329994413 a.u.                8.9796 eV 
  ----------------------------------------------------------------------------
     Transition Moments    X -0.23764   Y -0.62094   Z -0.25314
     Transition Moments   XX  0.34573  XY  0.71863  XZ  0.71868
     Transition Moments   YY -0.30045  YZ -0.56244  ZZ  0.21215
     Dipole Oscillator Strength                         0.11134

     Electric Transition Dipole:
            X   -0.2376362   Y  -0.6209376   Z  -0.2531447
     Magnetic Transition Dipole (Length):
            X   -0.3632235   Y  -0.5789518   Z   0.0112041
     Magnetic Transition Dipole * 1/c :
            X   -0.0026506   Y  -0.0042248   Z   0.0000818
     Rotatory Strength (1E-40 esu**2cm**2):          208.8401977

     Occ.    5  a   ---  Virt.   11  a     -0.06446
     Occ.    6  a   ---  Virt.   12  a      0.06236
     Occ.    7  a   ---  Virt.   11  a      0.08206
     Occ.    7  a   ---  Virt.   12  a      0.09007
     Occ.    7  a   ---  Virt.   13  a      0.06418
     Occ.    8  a   ---  Virt.   11  a      0.79306
     Occ.    9  a   ---  Virt.   11  a     -0.09592
     Occ.    9  a   ---  Virt.   12  a     -0.39021
     Occ.   10  a   ---  Virt.   12  a      0.35768
     Occ.   10  a   ---  Virt.   13  a      0.19291
  ----------------------------------------------------------------------------
  Root   5 singlet a              0.346350537 a.u.                9.4247 eV 
  ----------------------------------------------------------------------------
     Transition Moments    X -0.67103   Y -0.21558   Z  0.11271
     Transition Moments   XX -0.62445  XY  0.27958  XZ -0.14368
     Transition Moments   YY  1.35663  YZ  0.28717  ZZ  0.37830
     Dipole Oscillator Strength                         0.11764

     Electric Transition Dipole:
            X   -0.6710338   Y  -0.2155821   Z   0.1127065
     Magnetic Transition Dipole (Length):
            X   -0.0473294   Y   0.1525946   Z   0.0227896
     Magnetic Transition Dipole * 1/c :
            X   -0.0003454   Y   0.0011135   Z   0.0001663
     Rotatory Strength (1E-40 esu**2cm**2):            0.6748692

     Occ.    5  a   ---  Virt.   11  a      0.08069
     Occ.    5  a   ---  Virt.   12  a      0.06066
     Occ.    6  a   ---  Virt.   11  a      0.16682
     Occ.    6  a   ---  Virt.   12  a     -0.07008
     Occ.    7  a   ---  Virt.   11  a     -0.43445
     Occ.    7  a   ---  Virt.   13  a      0.06788
     Occ.    7  a   ---  Virt.   15  a     -0.05132
     Occ.    8  a   ---  Virt.   11  a      0.48766
     Occ.    8  a   ---  Virt.   13  a     -0.07567
     Occ.    9  a   ---  Virt.   11  a      0.11366
     Occ.    9  a   ---  Virt.   12  a      0.33899
     Occ.    9  a   ---  Virt.   13  a      0.14351
     Occ.    9  a   ---  Virt.   14  a      0.07790
     Occ.    9  a   ---  Virt.   15  a     -0.06870
     Occ.   10  a   ---  Virt.   11  a      0.08392
     Occ.   10  a   ---  Virt.   12  a     -0.57739
     Occ.   10  a   ---  Virt.   13  a      0.06222
     Occ.   10  a   ---  Virt.   14  a     -0.05480
  ----------------------------------------------------------------------------
  Root   6 singlet a              0.394232630 a.u.               10.7276 eV 
  ----------------------------------------------------------------------------
     Transition Moments    X -0.40047   Y  0.09952   Z -0.11738
     Transition Moments   XX -0.80056  XY -0.21235  XZ  0.83275
     Transition Moments   YY  0.29593  YZ -0.17904  ZZ  0.01028
     Dipole Oscillator Strength                         0.04837

     Electric Transition Dipole:
            X   -0.4004664   Y   0.0995163   Z  -0.1173834
     Magnetic Transition Dipole (Length):
            X   -0.2452042   Y  -0.4074956   Z   0.0705081
     Magnetic Transition Dipole * 1/c :
            X   -0.0017893   Y  -0.0029736   Z   0.0005145
     Rotatory Strength (1E-40 esu**2cm**2):           23.2742522

     Occ.    6  a   ---  Virt.   11  a     -0.64469
     Occ.    6  a   ---  Virt.   12  a      0.16410
     Occ.    7  a   ---  Virt.   11  a     -0.15297
     Occ.    7  a   ---  Virt.   12  a      0.11582
     Occ.    8  a   ---  Virt.   11  a     -0.09021
     Occ.    9  a   ---  Virt.   11  a     -0.09978
     Occ.    9  a   ---  Virt.   12  a     -0.50887
     Occ.    9  a   ---  Virt.   13  a      0.15524
     Occ.    9  a   ---  Virt.   15  a     -0.06135
     Occ.   10  a   ---  Virt.   11  a      0.08235
     Occ.   10  a   ---  Virt.   12  a     -0.42350
     Occ.   10  a   ---  Virt.   13  a     -0.11198
  ----------------------------------------------------------------------------
  Root   7 singlet a              0.428745436 a.u.               11.6668 eV 
  ----------------------------------------------------------------------------
     Transition Moments    X  0.19237   Y  0.29349   Z  0.17637
     Transition Moments   XX  0.12949  XY  0.18031  XZ -0.47368
     Transition Moments   YY  0.91018  YZ  0.43032  ZZ  0.05421
     Dipole Oscillator Strength                         0.04409

     Electric Transition Dipole:
            X    0.1923744   Y   0.2934896   Z   0.1763692
     Magnetic Transition Dipole (Length):
            X   -0.1099617   Y   0.0535722   Z  -0.1813003
     Magnetic Transition Dipole * 1/c :
            X   -0.0008024   Y   0.0003909   Z  -0.0013230
     Rotatory Strength (1E-40 esu**2cm**2):          -17.6354983

     Occ.    5  a   ---  Virt.   11  a      0.12181
     Occ.    5  a   ---  Virt.   12  a     -0.11132
     Occ.    6  a   ---  Virt.   11  a      0.60009
     Occ.    7  a   ---  Virt.   11  a     -0.37059
     Occ.    7  a   ---  Virt.   12  a     -0.14230
     Occ.    8  a   ---  Virt.   11  a     -0.18494
     Occ.    8  a   ---  Virt.   12  a     -0.05343
     Occ.    8  a   ---  Virt.   13  a     -0.05778
     Occ.    9  a   ---  Virt.   12  a     -0.63284
     Occ.   10  a   ---  Virt.   12  a     -0.06040
  ----------------------------------------------------------------------------
  Root   8 singlet a              0.525628840 a.u.               14.3031 eV 
  ----------------------------------------------------------------------------
     Transition Moments    X  0.02455   Y  0.71657   Z -0.01247
     Transition Moments   XX  0.08209  XY -0.71740  XZ  0.51912
     Transition Moments   YY  0.37196  YZ -1.13108  ZZ -0.28518
     Dipole Oscillator Strength                         0.18020

     Electric Transition Dipole:
            X    0.0245482   Y   0.7165749   Z  -0.0124678
     Magnetic Transition Dipole (Length):
            X   -0.3123976   Y  -0.2779532   Z  -0.3387559
     Magnetic Transition Dipole * 1/c :
            X   -0.0022797   Y  -0.0020283   Z  -0.0024720
     Rotatory Strength (1E-40 esu**2cm**2):          -95.5255165

     Occ.    5  a   ---  Virt.   11  a     -0.39055
     Occ.    5  a   ---  Virt.   12  a      0.07446
     Occ.    6  a   ---  Virt.   11  a      0.12806
     Occ.    7  a   ---  Virt.   11  a     -0.05109
     Occ.    7  a   ---  Virt.   12  a      0.55789
     Occ.    7  a   ---  Virt.   13  a     -0.11483
     Occ.    8  a   ---  Virt.   11  a     -0.15186
     Occ.    8  a   ---  Virt.   12  a      0.50593
     Occ.    9  a   ---  Virt.   11  a      0.11350
     Occ.    9  a   ---  Virt.   14  a      0.08310
     Occ.    9  a   ---  Virt.   15  a      0.08968
     Occ.    9  a   ---  Virt.   17  a      0.05280
     Occ.   10  a   ---  Virt.   12  a     -0.07120
     Occ.   10  a   ---  Virt.   13  a      0.38554
     Occ.   10  a   ---  Virt.   14  a     -0.11358
  ----------------------------------------------------------------------------
  Root   9 singlet a              0.540452349 a.u.               14.7065 eV 
  ----------------------------------------------------------------------------
     Transition Moments    X -0.06868   Y -0.96379   Z  0.19294
     Transition Moments   XX -0.22084  XY  0.89367  XZ  0.40778
     Transition Moments   YY  0.09925  YZ -0.61805  ZZ  0.20240
     Dipole Oscillator Strength                         0.34979

     Electric Transition Dipole:
            X   -0.0686798   Y  -0.9637919   Z   0.1929388
     Magnetic Transition Dipole (Length):
            X    0.0117048   Y  -0.1475204   Z   0.1023374
     Magnetic Transition Dipole * 1/c :
            X    0.0000854   Y  -0.0010765   Z   0.0007468
     Rotatory Strength (1E-40 esu**2cm**2):           75.9604259

     Occ.    5  a   ---  Virt.   11  a     -0.32411
     Occ.    6  a   ---  Virt.   11  a      0.16874
     Occ.    7  a   ---  Virt.   11  a     -0.05246
     Occ.    7  a   ---  Virt.   12  a      0.41675
     Occ.    7  a   ---  Virt.   17  a     -0.07429
     Occ.    8  a   ---  Virt.   11  a      0.07508
     Occ.    8  a   ---  Virt.   12  a     -0.12400
     Occ.    8  a   ---  Virt.   13  a     -0.07554
     Occ.    8  a   ---  Virt.   17  a      0.05105
     Occ.    9  a   ---  Virt.   11  a      0.10004
     Occ.    9  a   ---  Virt.   14  a     -0.06922
     Occ.    9  a   ---  Virt.   15  a     -0.12158
     Occ.    9  a   ---  Virt.   17  a     -0.06575
     Occ.    9  a   ---  Virt.   18  a     -0.05328
     Occ.   10  a   ---  Virt.   12  a      0.08456
     Occ.   10  a   ---  Virt.   13  a     -0.75715
     Occ.   10  a   ---  Virt.   14  a     -0.08377
     Occ.   10  a   ---  Virt.   15  a      0.09448
  ----------------------------------------------------------------------------
  Root  10 singlet a              0.573624399 a.u.               15.6091 eV 
  ----------------------------------------------------------------------------
     Transition Moments    X  0.45415   Y -0.36100   Z -0.97621
     Transition Moments   XX  0.17089  XY  0.19292  XZ  0.06139
     Transition Moments   YY  0.46111  YZ -0.61966  ZZ  0.07159
     Dipole Oscillator Strength                         0.49315

     Electric Transition Dipole:
            X    0.4541465   Y  -0.3609978   Z  -0.9762148
     Magnetic Transition Dipole (Length):
            X   -0.1194766   Y  -0.0173410   Z   0.2452984
     Magnetic Transition Dipole * 1/c :
            X   -0.0008719   Y  -0.0001265   Z   0.0017900
     Rotatory Strength (1E-40 esu**2cm**2):         -135.5255330

     Occ.    4  a   ---  Virt.   11  a      0.06812
     Occ.    5  a   ---  Virt.   11  a      0.70874
     Occ.    6  a   ---  Virt.   14  a      0.05094
     Occ.    7  a   ---  Virt.   12  a      0.40005
     Occ.    7  a   ---  Virt.   13  a      0.06983
     Occ.    8  a   ---  Virt.   12  a      0.33696
     Occ.    9  a   ---  Virt.   13  a      0.23150
     Occ.    9  a   ---  Virt.   14  a     -0.18873
     Occ.    9  a   ---  Virt.   19  a     -0.05632
     Occ.   10  a   ---  Virt.   12  a      0.14500
     Occ.   10  a   ---  Virt.   13  a     -0.10631
     Occ.   10  a   ---  Virt.   14  a      0.24430
     Occ.   10  a   ---  Virt.   16  a     -0.06325

              Target root =      1
          Target symmetry = none
      Ground state energy =   -101.118440429379
        Excitation energy =      0.125204912401
     Excited state energy =   -100.993235516978


 Task  times  cpu:        1.5s     wall:        4.0s


                                NWChem Input Module
                                -------------------


 Summary of allocated global arrays
-----------------------------------
  No active global arrays



                         GA Statistics for process    0
                         ------------------------------

       create   destroy   get      put      acc     scatter   gather  read&inc
calls:  593      593     9.74e+04 3.28e+04 3.56e+04  152        0     1048     
number of processes/call 1.00e+00 1.00e+00 1.00e+00 0.00e+00 0.00e+00
bytes total:             4.03e+07 1.12e+07 1.54e+07 2.89e+03 0.00e+00 8.38e+03
bytes remote:            0.00e+00 0.00e+00 0.00e+00 0.00e+00 0.00e+00 0.00e+00
Max memory consumed for GA by this process: 8829144 bytes

MA_summarize_allocated_blocks: starting scan ...
MA_summarize_allocated_blocks: scan completed: 0 heap blocks, 0 stack blocks
MA usage statistics:

	allocation statistics:
					      heap	     stack
					      ----	     -----
	current number of blocks	         0	         0
	maximum number of blocks	        20	        34
	current total bytes		         0	         0
	maximum total bytes		     80120	  22511160
	maximum total K-bytes		        81	     22512
	maximum total M-bytes		         1	        23


                                     CITATION
                                     --------
                Please cite the following reference when publishing
                           results obtained with NWChem:

                 M. Valiev, E.J. Bylaska, N. Govind, K. Kowalski,
              T.P. Straatsma, H.J.J. van Dam, D. Wang, J. Nieplocha,
                        E. Apra, T.L. Windus, W.A. de Jong
                 "NWChem: a comprehensive and scalable open-source
                  solution for large scale molecular simulations"
                      Comput. Phys. Commun. 181, 1477 (2010)
                           doi:10.1016/j.cpc.2010.04.018

                                      AUTHORS
                                      -------
          E. Apra, E. J. Bylaska, W. A. de Jong, N. Govind, K. Kowalski,
       T. P. Straatsma, M. Valiev, H. J. J. van Dam, D. Wang, T. L. Windus,
        J. Hammond, J. Autschbach, K. Bhaskaran-Nair, J. Brabec, K. Lopata,
       S. A. Fischer, S. Krishnamoorthy, W. Ma, M. Klemm, O. Villa, Y. Chen,
    V. Anisimov, F. Aquino, S. Hirata, M. T. Hackler, T. Risthaus, M. Malagoli,
       A. Marenich, A. Otero-de-la-Roza, J. Mullin, P. Nichols, R. Peverati,
     J. Pittner, Y. Zhao, P.-D. Fan, A. Fonari, M. Williamson, R. J. Harrison,
       J. R. Rehr, M. Dupuis, D. Silverstein, D. M. A. Smith, J. Nieplocha,
        V. Tipparaju, M. Krishnan, B. E. Van Kuiken, A. Vazquez-Mayagoitia,
        L. Jensen, M. Swart, Q. Wu, T. Van Voorhis, A. A. Auer, M. Nooijen,
      L. D. Crosby, E. Brown, G. Cisneros, G. I. Fann, H. Fruchtl, J. Garza,
        K. Hirao, R. A. Kendall, J. A. Nichols, K. Tsemekhman, K. Wolinski,
     J. Anchell, D. E. Bernholdt, P. Borowski, T. Clark, D. Clerc, H. Dachsel,
   M. J. O. Deegan, K. Dyall, D. Elwood, E. Glendening, M. Gutowski, A. C. Hess,
         J. Jaffe, B. G. Johnson, J. Ju, R. Kobayashi, R. Kutteh, Z. Lin,
   R. Littlefield, X. Long, B. Meng, T. Nakajima, S. Niu, L. Pollack, M. Rosing,
   K. Glaesemann, G. Sandrone, M. Stave, H. Taylor, G. Thomas, J. H. van Lenthe,
                               A. T. Wong, Z. Zhang.

 Total times  cpu:        1.5s     wall:        4.1s
