localhost.localdomain 127.0.0
Q-Chem Developer Version! Running on 127.0.0.*
                  Welcome to Q-Chem
     A Quantum Leap Into The Future Of Chemistry


 Q-Chem 5.0, Q-Chem, Inc., Pleasanton, CA (2017)

 Yihan Shao,  Zhengting Gan,  E. Epifanovsky,  A. T. B. Gilbert,  M. Wormit,  
 J. Kussmann,  A. W. Lange,  A. Behn,  Jia Deng,  Xintian Feng,  D. Ghosh,  
 M. Goldey,  P. R. Horn,  L. D. Jacobson,  I. Kaliman,  T. Kus,  A. Landau,  
 Jie Liu,  E. I. Proynov,  R. M. Richard,  R. P. Steele,  E. J. Sundstrom,  
 H. L. Woodcock III,  P. M. Zimmerman,  D. Zuev,  B. Albrecht,  E. Alguire,  
 S. A. Baeppler,  Z. Benda,  Y. A. Bernard,  E. J. Berquist,  K. B. Bravaya,  
 D. Casanova,  Chun-Min Chang,  Yunqing Chen,  A. Chien,  K. D. Closser,  
 M. P. Coons,  S. Dasgupta,  M. Diedenhofen,  Hainam Do,  R. G. Edgar,  
 Po-Tung Fang,  S. Fatehi,  Qingguo Feng,  Qinghui Ge,  A. Ghysels,  
 J. Gomes,  J. Gonthier,  A. Gunina,  M. W. D. Hanson-Heine,  
 P. H. P. Harbach,  A. W. Hauser,  J. E. Herr,  E. G. Hohenstein,  
 Z. C. Holden,  Kerwin Hui,  T.-C. Jagau,  Hyunjun Ji,  B. Kaduk,  
 K. Khistyaev,  Jaehoon Kim,  P. Klunzinger,  K. Koh,  D. Kosenkov,  
 T. Kowalczyk,  C. M. Krauter,  A. Kunitsa,  Ka Un Lao,  A. Laurent,  
 K. V. Lawler,  Joonho Lee,  D. Lefrancois,  S. Lehtola,  D. S. Levine,  
 Yi-Pei Li,  You-Sheng Lin,  Fenglai Liu,  E. Livshits,  A. Luenser,  
 P. Manohar,  E. Mansoor,  S. F. Manzer,  Shan-Ping Mao,  Yuezhi Mao,  
 N. Mardirossian,  A. V. Marenich,  L. A. Martinez-Martinez,  S. A. Maurer,  
 N. J. Mayhall,  S. C. McKenzie,  J.-M. Mewes,  A. F. Morrison,  K. Nanda,  
 T. S. Nguyen-Beck,  R. Olivares-Amaya,  J. A. Parkhill,  T. M. Perrine,  
 F. Plasser,  S. Prager,  A. Prociuk,  D. R. Rehn,  F. Rob,  M. Schneider,  
 N. Sergueev,  S. M. Sharada,  S. Sharma,  D. W. Small,  T. Stauch,  
 T. Stein,  Yu-Chuan Su,  A. J. W. Thom,  T. Tsuchimochi,  L. Vogt,  
 O. Vydrov,  M. A. Watson,  J. Wenzel,  M. de Wergifosse,  T. A. Wesolowski,  
 A. White,  J. Witte,  A. Yamada,  Jun Yang,  K. Yao,  S. Yeganeh,  
 S. R. Yost,  Zhi-Qiang You,  A. Zech,  Igor Ying Zhang,  Xing Zhang,  
 Yan Zhao,  Ying Zhu,  B. R. Brooks,  G. K. L. Chan,  C. J. Cramer,  
 M. S. Gordon,  W. J. Hehre,  A. Klamt,  M. W. Schmidt,  C. D. Sherrill,  
 D. G. Truhlar,  A. Aspuru-Guzik,  R. Baer,  A. T. Bell,  N. A. Besley,  
 Jeng-Da Chai,  A. Dreuw,  B. D. Dunietz,  T. R. Furlani,  Chao-Ping Hsu,  
 Yousung Jung,  Jing Kong,  D. S. Lambrecht,  WanZhen Liang,  C. Ochsenfeld,  
 V. A. Rassolov,  L. V. Slipchenko,  J. E. Subotnik,  T. Van Voorhis,  
 J. M. Herbert,  A. I. Krylov,  P. M. W. Gill,  M. Head-Gordon

 Contributors to earlier versions of Q-Chem not listed above: 
 R. D. Adamson,  B. Austin,  J. Baker,  G. J. O. Beran,  K. Brandhorst,  
 S. T. Brown,  E. F. C. Byrd,  A. K. Chakraborty,  C.-L. Cheng,  
 Siu Hung Chien,  D. M. Chipman,  D. L. Crittenden,  H. Dachsel,  
 R. A. DiStasio Jr.,  R. J. Doerksen,  A. D. Dutoi,  L. Fusti-Molnar,  
 W. A. Goddard III,  A. Golubeva-Zadorozhnaya,  S. R. Gwaltney,  G. Hawkins,  
 A. Heyden,  S. Hirata,  G. Kedziora,  F. J. Keil,  C. Kelley,  Jihan Kim,  
 R. A. King,  R. Z. Khaliullin,  P. P. Korambath,  W. Kurlancheek,  
 A. M. Lee,  M. S. Lee,  S. V. Levchenko,  Ching Yeh Lin,  D. Liotard,  
 R. C. Lochan,  I. Lotan,  P. E. Maslen,  N. Nair,  D. P. O'Neill,  
 D. Neuhauser,  E. Neuscamman,  C. M. Oana,  R. Olson,  B. Peters,  
 R. Peverati,  P. A. Pieniazek,  Y. M. Rhee,  J. Ritchie,  M. A. Rohrdanz,  
 E. Rosta,  N. J. Russ,  H. F. Schaefer III,  N. E. Schultz,  N. Shenvi,  
 A. C. Simmonett,  A. Sodt,  D. Stuck,  K. S. Thanthiriwatte,  V. Vanovschi,  
 Tao Wang,  A. Warshel,  C. F. Williams,  Q. Wu,  X. Xu,  W. Zhang

 Please cite Q-Chem as follows:
 Y. Shao et al., Mol. Phys. 113, 184-215 (2015)
 DOI: 10.1080/00268976.2014.952696

 Q-Chem 5.0.1 for Intel X86 EM64T Linux

 Parts of Q-Chem use Armadillo 5.200.1 (Boston Tea Smuggler).
 http://arma.sourceforge.net/

Compilation information
-----------------------

 SVN revision             | 26488
 SVN branch               | branches/libresponse
 Last SVN revision        | 26488
 Last SVN author          | ericb
 System                   | Linux-4.13.6-1-ARCH
 Processor                | x86_64
 Compiler                 | GNU
 C compiler version       | 7.2.0
 CXX compiler version     | 7.2.0
 Fortran compiler version | 7.2.0


 Q-Chem begins on Mon Dec 18 21:13:29 2017  

Host: copper
0

     Scratch files written to /tmp/qchem/qchem30421//

Checking the input file for inconsistencies... 	...done.

--------------------------------------------------------------
User input:
--------------------------------------------------------------
$rem
 method = hf
 basis = sto-3g
 scf_convergence = 10
 thresh = 14
 moprop = 103
 symmetry = false
 sym_ignore = true
 moprop_conv_1st = 9
 moprop_conv_2nd = 9
$end

$fdpfreq
shg
0.0773178
au
$end

$molecule
0 1
O          0.000000000000     0.000000000000    -0.075791843589
H          0.000000000000    -0.866811828967     0.601435779270
H          0.000000000000     0.866811828967     0.601435779270
$end
--------------------------------------------------------------
 ----------------------------------------------------------------
             Standard Nuclear Orientation (Angstroms)
    I     Atom           X                Y                Z
 ----------------------------------------------------------------
    1      O       0.0000000000     0.0000000000    -0.0757918436
    2      H       0.0000000000    -0.8668118290     0.6014357793
    3      H       0.0000000000     0.8668118290     0.6014357793
 ----------------------------------------------------------------
 Nuclear Repulsion Energy =     8.0023664841 hartrees
 There are        5 alpha and        5 beta electrons
 Requested basis set is STO-3G
 There are 4 shells and 7 basis functions

 Total QAlloc Memory Limit   2000 MB
 Mega-Array Size        61 MB
 MEM_STATIC part        62 MB

                       Distance Matrix (Angstroms)
             O (  1)   H (  2)
   H (  2)  1.100000
   H (  3)  1.100000  1.733624

 A cutoff of  1.0D-14 yielded     10 shell pairs
 There are        34 function pairs
 Smallest overlap matrix eigenvalue = 4.34E-01

 Scale SEOQF with 1.000000e+00/1.000000e+00/1.000000e+00

 Standard Electronic Orientation quadrupole field applied
 Nucleus-field energy     =     0.0000000002 hartrees
 Guess from superposition of atomic densities
 Warning:  Energy on first SCF cycle will be non-variational
 SAD guess density has 10.000000 electrons
 A restricted Hartree-Fock SCF calculation will be
 performed using Pulay DIIS extrapolation
 SCF converges when DIIS error is below 1.0E-10
 ---------------------------------------
  Cycle       Energy         DIIS Error
 ---------------------------------------
    1     -74.3632364404      3.11E-01
    2     -74.8897018458      7.23E-02
    3     -74.9408834963      1.22E-02
    4     -74.9420558345      1.59E-03
    5     -74.9420798796      3.35E-05
    6     -74.9420798948      1.29E-05
    7     -74.9420798987      2.55E-08
    8     -74.9420798987      5.80E-10
    9     -74.9420798987      2.20E-13 Convergence criterion met
 ---------------------------------------
 SCF time:  CPU 0.01 s  wall 0.01 s
 SCF   energy in the final basis set = -74.94207990
 Total energy in the final basis set = -74.94207990


      ==================================================== 
      ===                                              === 
      ===      MO-based Calculation of Properties      === 
      ===                                              === 
      ===          J. Kussmann, C. Ochsenfeld          === 
      ===                                              === 
      ==================================================== 

WARNING: SYMMETRY USAGE disabled in MO-CPSCF for now... 

 --> static/frequency-dependent 1st hyper-polarizability

  Calculate frequency-dependent polarizabilities for 1 frequencies:
  0.077318

Now forming Dipole-matrix (explicitly)... 
...done! 

  DIIS-Info:
  starting crit.:                        1.0e+00
  Max. dimension of DIIS-subspace:            15
  Mode: cyclic vector sampling, shifting vectors if max. dimension is reached.

  ++++++++++++++++++++++++++++
  ++++ TDSCF  - 1st order ++++
  ++++++++++++++++++++++++++++

  ConvCrit:  1.0e-09       Max. Iter:    50
  Treat Ex/Ey/Ez together...

    FREQUENCY   1:         0.0773178000 a.u.

  ----------------------------------------------------------------------------------------
     Iter              Error Ex           Error Ey          Error Ez          Converged
  ----------------------------------------------------------------------------------------

 =======================================================
   Intermediate polarization tensor
 =======================================================
   ISOTROPIC:        3.44374790
   ANISOTROPIC:      6.36964202
   Trace =          10.33124370
   Full Tensor:
          0.03575567       0.00000000       0.00000000
          0.00000000       7.34166855      -0.00000000
          0.00000000      -0.00000000       2.95381949
 =======================================================

        0          10000000000.0000000000  (isotropic)


 =======================================================
   Intermediate polarization tensor
 =======================================================
   ISOTROPIC:        3.65298269
   ANISOTROPIC:      6.79686828
   Trace =          10.95894807
   Full Tensor:
          0.04296326       0.00000000       0.00000000
          0.00000000       7.82969206      -0.00000000
          0.00000000      -0.00000000       3.08629276
 =======================================================

        1             0.2092347904  (isotropic)


 =======================================================
   Intermediate polarization tensor
 =======================================================
   ISOTROPIC:        3.71315191
   ANISOTROPIC:      6.95499025
   Trace =          11.13945573
   Full Tensor:
          0.04728838       0.00000000       0.00000000
          0.00000000       8.00475132      -0.00000000
          0.00000000      -0.00000000       3.08741603
 =======================================================

        2             0.0601692205  (isotropic)


 =======================================================
   Intermediate polarization tensor
 =======================================================
   ISOTROPIC:        3.72609568
   ANISOTROPIC:      6.97777837
   Trace =          11.17828704
   Full Tensor:
          0.05071691       0.00000000       0.00000000
          0.00000000       8.03329720      -0.00000000
          0.00000000      -0.00000000       3.09427293
 =======================================================

        3             0.0129437681  (isotropic)


 =======================================================
   Intermediate polarization tensor
 =======================================================
   ISOTROPIC:        3.73078246
   ANISOTROPIC:      6.98351120
   Trace =          11.19234737
   Full Tensor:
          0.05164422       0.00000000       0.00000000
          0.00000000       8.04106657      -0.00000000
          0.00000000      -0.00000000       3.09963658
 =======================================================

        4             0.0046867782  (isotropic)


 =======================================================
   Intermediate polarization tensor
 =======================================================
   ISOTROPIC:        3.73313058
   ANISOTROPIC:      6.98728944
   Trace =          11.19939175
   Full Tensor:
          0.05181940       0.00000000       0.00000000
          0.00000000       8.04563412      -0.00000000
          0.00000000      -0.00000000       3.10193824
 =======================================================

        5             0.0023481277  (isotropic)


 =======================================================
   Intermediate polarization tensor
 =======================================================
   ISOTROPIC:        3.73424620
   ANISOTROPIC:      6.98936826
   Trace =          11.20273859
   Full Tensor:
          0.05194239       0.00000000       0.00000000
          0.00000000       8.04809607      -0.00000000
          0.00000000      -0.00000000       3.10270014
 =======================================================

        6             0.0011156127  (isotropic)


 =======================================================
   Intermediate polarization tensor
 =======================================================
   ISOTROPIC:        3.73475840
   ANISOTROPIC:      6.99033929
   Trace =          11.20427519
   Full Tensor:
          0.05203468       0.00000000       0.00000000
          0.00000000       8.04926414      -0.00000000
          0.00000000      -0.00000000       3.10297637
 =======================================================

        7             0.0005121996  (isotropic)


 =======================================================
   Intermediate polarization tensor
 =======================================================
   ISOTROPIC:        3.73498818
   ANISOTROPIC:      6.99073542
   Trace =          11.20496455
   Full Tensor:
          0.05210710       0.00000000       0.00000000
          0.00000000       8.04977008      -0.00000000
          0.00000000      -0.00000000       3.10308737
 =======================================================

        8             0.0002297856  (isotropic)


 =======================================================
   Intermediate polarization tensor
 =======================================================
   ISOTROPIC:        3.73509436
   ANISOTROPIC:      6.99087973
   Trace =          11.20528308
   Full Tensor:
          0.05216579       0.00000000       0.00000000
          0.00000000       8.04998292      -0.00000000
          0.00000000      -0.00000000       3.10313437
 =======================================================

        9             0.0001061781  (isotropic)


 =======================================================
   Intermediate polarization tensor
 =======================================================
   ISOTROPIC:        3.73514631
   ANISOTROPIC:      6.99091811
   Trace =          11.20543892
   Full Tensor:
          0.05221454       0.00000000       0.00000000
          0.00000000       8.05006905      -0.00000000
          0.00000000      -0.00000000       3.10315533
 =======================================================

       10             0.0000519464  (isotropic)


 =======================================================
   Intermediate polarization tensor
 =======================================================
   ISOTROPIC:        3.73517273
   ANISOTROPIC:      6.99091025
   Trace =          11.20551820
   Full Tensor:
          0.05225581       0.00000000       0.00000000
          0.00000000       8.05009724      -0.00000000
          0.00000000      -0.00000000       3.10316516
 =======================================================

       11             0.0000264275  (isotropic)


 =======================================================
   Intermediate polarization tensor
 =======================================================
   ISOTROPIC:        3.73518749
   ANISOTROPIC:      6.99088535
   Trace =          11.20556248
   Full Tensor:
          0.05229130       0.00000000       0.00000000
          0.00000000       8.05010132      -0.00000000
          0.00000000      -0.00000000       3.10316987
 =======================================================

       12             0.0000147600  (isotropic)


 =======================================================
   Intermediate polarization tensor
 =======================================================
   ISOTROPIC:        3.73519799
   ANISOTROPIC:      6.99085913
   Trace =          11.20559397
   Full Tensor:
          0.05232221       0.00000000       0.00000000
          0.00000000       8.05009970      -0.00000000
          0.00000000      -0.00000000       3.10317205
 =======================================================

       13             0.0000104950  (isotropic)


 =======================================================
   Intermediate polarization tensor
 =======================================================
   ISOTROPIC:        3.73520699
   ANISOTROPIC:      6.99083643
   Trace =          11.20562096
   Full Tensor:
          0.05234944       0.00000000       0.00000000
          0.00000000       8.05009856      -0.00000000
          0.00000000      -0.00000000       3.10317296
 =======================================================

       14             0.0000089973  (isotropic)


 =======================================================
   Intermediate polarization tensor
 =======================================================
   ISOTROPIC:        3.73521502
   ANISOTROPIC:      6.99081692
   Trace =          11.20564507
   Full Tensor:
          0.05237363       0.00000000       0.00000000
          0.00000000       8.05009817      -0.00000000
          0.00000000      -0.00000000       3.10317327
 =======================================================

       15             0.0000080377  (isotropic)


 =======================================================
   Intermediate polarization tensor
 =======================================================
   ISOTROPIC:        3.73520561
   ANISOTROPIC:      6.99083908
   Trace =          11.20561683
   Full Tensor:
          0.05234543       0.00000000       0.00000000
          0.00000000       8.05009805      -0.00000000
          0.00000000      -0.00000000       3.10317335
 =======================================================

       16             0.0000094153  (isotropic)


 =======================================================
   Intermediate polarization tensor
 =======================================================
   ISOTROPIC:        3.73520653
   ANISOTROPIC:      6.99083685
   Trace =          11.20561960
   Full Tensor:
          0.05234823       0.00000000       0.00000000
          0.00000000       8.05009804      -0.00000000
          0.00000000      -0.00000000       3.10317334
 =======================================================

       17             0.0000009244  (isotropic)


 =======================================================
   Intermediate polarization tensor
 =======================================================
   ISOTROPIC:        3.73520673
   ANISOTROPIC:      6.99083639
   Trace =          11.20562018
   Full Tensor:
          0.05234882       0.00000000       0.00000000
          0.00000000       8.05009804      -0.00000000
          0.00000000      -0.00000000       3.10317333
 =======================================================

       18             0.0000001932  (isotropic)


 =======================================================
   Intermediate polarization tensor
 =======================================================
   ISOTROPIC:        3.73531460
   ANISOTROPIC:      6.99058065
   Trace =          11.20594381
   Full Tensor:
          0.05267245       0.00000000       0.00000000
          0.00000000       8.05009804      -0.00000000
          0.00000000      -0.00000000       3.10317332
 =======================================================

       19             0.0001078774  (isotropic)


 =======================================================
   Intermediate polarization tensor
 =======================================================
   ISOTROPIC:        3.73533708
   ANISOTROPIC:      6.99052737
   Trace =          11.20601124
   Full Tensor:
          0.05273988       0.00000000       0.00000000
          0.00000000       8.05009804      -0.00000000
          0.00000000      -0.00000000       3.10317332
 =======================================================

       20             0.0000224766  (isotropic)


 =======================================================
   Intermediate polarization tensor
 =======================================================
   ISOTROPIC:        3.73536836
   ANISOTROPIC:      6.99045322
   Trace =          11.20610508
   Full Tensor:
          0.05283372       0.00000000       0.00000000
          0.00000000       8.05009804      -0.00000000
          0.00000000      -0.00000000       3.10317332
 =======================================================

       21             0.0000312774  (isotropic)


 =======================================================
   Intermediate polarization tensor
 =======================================================
   ISOTROPIC:        3.73540439
   ANISOTROPIC:      6.99036781
   Trace =          11.20621317
   Full Tensor:
          0.05294181       0.00000000       0.00000000
          0.00000000       8.05009804      -0.00000000
          0.00000000      -0.00000000       3.10317332
 =======================================================

       22             0.0000360316  (isotropic)


 =======================================================
   Intermediate polarization tensor
 =======================================================
   ISOTROPIC:        3.73540717
   ANISOTROPIC:      6.99036121
   Trace =          11.20622152
   Full Tensor:
          0.05295016       0.00000000       0.00000000
          0.00000000       8.05009804      -0.00000000
          0.00000000      -0.00000000       3.10317332
 =======================================================

       23             0.0000027833  (isotropic)


 =======================================================
   Intermediate polarization tensor
 =======================================================
   ISOTROPIC:        3.73539952
   ANISOTROPIC:      6.99037936
   Trace =          11.20619855
   Full Tensor:
          0.05292719       0.00000000       0.00000000
          0.00000000       8.05009804      -0.00000000
          0.00000000      -0.00000000       3.10317332
 =======================================================

       24             0.0000076564  (isotropic)


 =======================================================
   Intermediate polarization tensor
 =======================================================
   ISOTROPIC:        3.73539517
   ANISOTROPIC:      6.99038967
   Trace =          11.20618550
   Full Tensor:
          0.05291414       0.00000000       0.00000000
          0.00000000       8.05009804      -0.00000000
          0.00000000      -0.00000000       3.10317332
 =======================================================

       25             0.0000043503  (isotropic)


 =======================================================
   Intermediate polarization tensor
 =======================================================
   ISOTROPIC:        3.73539267
   ANISOTROPIC:      6.99039560
   Trace =          11.20617800
   Full Tensor:
          0.05290664       0.00000000       0.00000000
          0.00000000       8.05009804      -0.00000000
          0.00000000      -0.00000000       3.10317332
 =======================================================

       26             0.0000025006  (isotropic)


 =======================================================
   Intermediate polarization tensor
 =======================================================
   ISOTROPIC:        3.73539126
   ANISOTROPIC:      6.99039893
   Trace =          11.20617378
   Full Tensor:
          0.05290242       0.00000000       0.00000000
          0.00000000       8.05009804      -0.00000000
          0.00000000      -0.00000000       3.10317332
 =======================================================

       27             0.0000014064  (isotropic)


 =======================================================
   Intermediate polarization tensor
 =======================================================
   ISOTROPIC:        3.73539052
   ANISOTROPIC:      6.99040069
   Trace =          11.20617156
   Full Tensor:
          0.05290020       0.00000000       0.00000000
          0.00000000       8.05009804      -0.00000000
          0.00000000      -0.00000000       3.10317332
 =======================================================

       28             0.0000007404  (isotropic)


 =======================================================
   Intermediate polarization tensor
 =======================================================
   ISOTROPIC:        3.73539018
   ANISOTROPIC:      6.99040150
   Trace =          11.20617053
   Full Tensor:
          0.05289917       0.00000000       0.00000000
          0.00000000       8.05009804      -0.00000000
          0.00000000      -0.00000000       3.10317332
 =======================================================

       29             0.0000003441  (isotropic)


 =======================================================
   Intermediate polarization tensor
 =======================================================
   ISOTROPIC:        3.73539004
   ANISOTROPIC:      6.99040182
   Trace =          11.20617013
   Full Tensor:
          0.05289877       0.00000000       0.00000000
          0.00000000       8.05009804      -0.00000000
          0.00000000      -0.00000000       3.10317332
 =======================================================

       30             0.0000001319  (isotropic)


 =======================================================
   Intermediate polarization tensor
 =======================================================
   ISOTROPIC:        3.73539000
   ANISOTROPIC:      6.99040191
   Trace =          11.20617001
   Full Tensor:
          0.05289865       0.00000000       0.00000000
          0.00000000       8.05009804      -0.00000000
          0.00000000      -0.00000000       3.10317332
 =======================================================

       31             0.0000000393  (isotropic)


 =======================================================
   Intermediate polarization tensor
 =======================================================
   ISOTROPIC:        3.73539000
   ANISOTROPIC:      6.99040193
   Trace =          11.20616999
   Full Tensor:
          0.05289863       0.00000000       0.00000000
          0.00000000       8.05009804      -0.00000000
          0.00000000      -0.00000000       3.10317332
 =======================================================

       32             0.0000000089  (isotropic)


 =======================================================
   Intermediate polarization tensor
 =======================================================
   ISOTROPIC:        3.73538999
   ANISOTROPIC:      6.99040193
   Trace =          11.20616998
   Full Tensor:
          0.05289862       0.00000000       0.00000000
          0.00000000       8.05009804      -0.00000000
          0.00000000      -0.00000000       3.10317332
 =======================================================

       33             0.0000000015  (isotropic)


 =======================================================
   Intermediate polarization tensor
 =======================================================
   ISOTROPIC:        3.73538999
   ANISOTROPIC:      6.99040193
   Trace =          11.20616998
   Full Tensor:
          0.05289862       0.00000000       0.00000000
          0.00000000       8.05009804      -0.00000000
          0.00000000      -0.00000000       3.10317332
 =======================================================

       34             0.0000000002  (isotropic)



  ===== TDSCF converged after 34 iterations... =====



    FREQUENCY   2:         0.1546356000 a.u.

  ----------------------------------------------------------------------------------------
     Iter              Error Ex           Error Ey          Error Ez          Converged
  ----------------------------------------------------------------------------------------

 =======================================================
   Intermediate polarization tensor
 =======================================================
   ISOTROPIC:        3.81977989
   ANISOTROPIC:      7.14267627
   Trace =          11.45933966
   Full Tensor:
          0.05494444       0.00000000       0.00000000
          0.00000000       8.22716334      -0.00000000
          0.00000000      -0.00000000       3.17723188
 =======================================================

        0          10000000000.0000000000  (isotropic)


 =======================================================
   Intermediate polarization tensor
 =======================================================
   ISOTROPIC:        3.85638586
   ANISOTROPIC:      7.22702239
   Trace =          11.56915759
   Full Tensor:
          0.05669304       0.00000000       0.00000000
          0.00000000       8.32171502      -0.00000000
          0.00000000      -0.00000000       3.19074953
 =======================================================

        1             0.0366059763  (isotropic)


 =======================================================
   Intermediate polarization tensor
 =======================================================
   ISOTROPIC:        3.87842378
   ANISOTROPIC:      7.27264937
   Trace =          11.63527133
   Full Tensor:
          0.05776721       0.00000000       0.00000000
          0.00000000       8.37378859      -0.00000000
          0.00000000      -0.00000000       3.20371554
 =======================================================

        2             0.0220379141  (isotropic)


 =======================================================
   Intermediate polarization tensor
 =======================================================
   ISOTROPIC:        3.89263037
   ANISOTROPIC:      7.30123313
   Trace =          11.67789110
   Full Tensor:
          0.05932707       0.00000000       0.00000000
          0.00000000       8.40710311      -0.00000000
          0.00000000      -0.00000000       3.21146091
 =======================================================

        3             0.0142065892  (isotropic)


 =======================================================
   Intermediate polarization tensor
 =======================================================
   ISOTROPIC:        3.89578952
   ANISOTROPIC:      7.30548580
   Trace =          11.68736855
   Full Tensor:
          0.06068661       0.00000000       0.00000000
          0.00000000       8.41315446      -0.00000000
          0.00000000      -0.00000000       3.21352747
 =======================================================

        4             0.0031591499  (isotropic)


 =======================================================
   Intermediate polarization tensor
 =======================================================
   ISOTROPIC:        3.89652156
   ANISOTROPIC:      7.30572228
   Trace =          11.68956467
   Full Tensor:
          0.06132947       0.00000000       0.00000000
          0.00000000       8.41405393      -0.00000000
          0.00000000      -0.00000000       3.21418127
 =======================================================

        5             0.0007320397  (isotropic)


 =======================================================
   Intermediate polarization tensor
 =======================================================
   ISOTROPIC:        3.89681361
   ANISOTROPIC:      7.30571173
   Trace =          11.69044082
   Full Tensor:
          0.06163731       0.00000000       0.00000000
          0.00000000       8.41434567      -0.00000000
          0.00000000      -0.00000000       3.21445784
 =======================================================

        6             0.0002920523  (isotropic)


 =======================================================
   Intermediate polarization tensor
 =======================================================
   ISOTROPIC:        3.89697374
   ANISOTROPIC:      7.30568391
   Trace =          11.69092121
   Full Tensor:
          0.06179327       0.00000000       0.00000000
          0.00000000       8.41447722      -0.00000000
          0.00000000      -0.00000000       3.21465072
 =======================================================

        7             0.0001601278  (isotropic)


 =======================================================
   Intermediate polarization tensor
 =======================================================
   ISOTROPIC:        3.89707241
   ANISOTROPIC:      7.30563187
   Trace =          11.69121724
   Full Tensor:
          0.06188481       0.00000000       0.00000000
          0.00000000       8.41452282      -0.00000000
          0.00000000      -0.00000000       3.21480961
 =======================================================

        8             0.0000986790  (isotropic)


 =======================================================
   Intermediate polarization tensor
 =======================================================
   ISOTROPIC:        3.89713302
   ANISOTROPIC:      7.30556733
   Trace =          11.69139906
   Full Tensor:
          0.06194501       0.00000000       0.00000000
          0.00000000       8.41452273      -0.00000000
          0.00000000      -0.00000000       3.21493132
 =======================================================

        9             0.0000606037  (isotropic)


 =======================================================
   Intermediate polarization tensor
 =======================================================
   ISOTROPIC:        3.89716341
   ANISOTROPIC:      7.30551647
   Trace =          11.69149022
   Full Tensor:
          0.06198755       0.00000000       0.00000000
          0.00000000       8.41451284      -0.00000000
          0.00000000      -0.00000000       3.21498982
 =======================================================

       10             0.0000303867  (isotropic)


 =======================================================
   Intermediate polarization tensor
 =======================================================
   ISOTROPIC:        3.89717386
   ANISOTROPIC:      7.30548571
   Trace =          11.69152157
   Full Tensor:
          0.06201915       0.00000000       0.00000000
          0.00000000       8.41450731      -0.00000000
          0.00000000      -0.00000000       3.21499512
 =======================================================

       11             0.0000104523  (isotropic)


 =======================================================
   Intermediate polarization tensor
 =======================================================
   ISOTROPIC:        3.89717993
   ANISOTROPIC:      7.30546529
   Trace =          11.69153978
   Full Tensor:
          0.06204348       0.00000000       0.00000000
          0.00000000       8.41450532      -0.00000000
          0.00000000      -0.00000000       3.21499097
 =======================================================

       12             0.0000060692  (isotropic)


 =======================================================
   Intermediate polarization tensor
 =======================================================
   ISOTROPIC:        3.89718554
   ANISOTROPIC:      7.30544977
   Trace =          11.69155661
   Full Tensor:
          0.06206276       0.00000000       0.00000000
          0.00000000       8.41450468      -0.00000000
          0.00000000      -0.00000000       3.21498917
 =======================================================

       13             0.0000056097  (isotropic)


 =======================================================
   Intermediate polarization tensor
 =======================================================
   ISOTROPIC:        3.89719034
   ANISOTROPIC:      7.30543740
   Trace =          11.69157103
   Full Tensor:
          0.06207836       0.00000000       0.00000000
          0.00000000       8.41450446      -0.00000000
          0.00000000      -0.00000000       3.21498821
 =======================================================

       14             0.0000048083  (isotropic)


 =======================================================
   Intermediate polarization tensor
 =======================================================
   ISOTROPIC:        3.89719444
   ANISOTROPIC:      7.30542727
   Trace =          11.69158331
   Full Tensor:
          0.06209123       0.00000000       0.00000000
          0.00000000       8.41450438      -0.00000000
          0.00000000      -0.00000000       3.21498769
 =======================================================

       15             0.0000040905  (isotropic)


 =======================================================
   Intermediate polarization tensor
 =======================================================
   ISOTROPIC:        3.89721043
   ANISOTROPIC:      7.30538924
   Trace =          11.69163129
   Full Tensor:
          0.06213953       0.00000000       0.00000000
          0.00000000       8.41450434      -0.00000000
          0.00000000      -0.00000000       3.21498742
 =======================================================

       16             0.0000159957  (isotropic)


 =======================================================
   Intermediate polarization tensor
 =======================================================
   ISOTROPIC:        3.89721944
   ANISOTROPIC:      7.30536789
   Trace =          11.69165831
   Full Tensor:
          0.06216665       0.00000000       0.00000000
          0.00000000       8.41450433      -0.00000000
          0.00000000      -0.00000000       3.21498733
 =======================================================

       17             0.0000090065  (isotropic)


 =======================================================
   Intermediate polarization tensor
 =======================================================
   ISOTROPIC:        3.89722766
   ANISOTROPIC:      7.30534846
   Trace =          11.69168298
   Full Tensor:
          0.06219133       0.00000000       0.00000000
          0.00000000       8.41450433      -0.00000000
          0.00000000      -0.00000000       3.21498732
 =======================================================

       18             0.0000082232  (isotropic)


 =======================================================
   Intermediate polarization tensor
 =======================================================
   ISOTROPIC:        3.89723207
   ANISOTROPIC:      7.30533803
   Trace =          11.69169622
   Full Tensor:
          0.06220457       0.00000000       0.00000000
          0.00000000       8.41450433      -0.00000000
          0.00000000      -0.00000000       3.21498733
 =======================================================

       19             0.0000044134  (isotropic)


 =======================================================
   Intermediate polarization tensor
 =======================================================
   ISOTROPIC:        3.89723212
   ANISOTROPIC:      7.30533793
   Trace =          11.69169635
   Full Tensor:
          0.06220469       0.00000000       0.00000000
          0.00000000       8.41450433      -0.00000000
          0.00000000      -0.00000000       3.21498733
 =======================================================

       20             0.0000000417  (isotropic)


 =======================================================
   Intermediate polarization tensor
 =======================================================
   ISOTROPIC:        3.89723202
   ANISOTROPIC:      7.30533817
   Trace =          11.69169605
   Full Tensor:
          0.06220439       0.00000000       0.00000000
          0.00000000       8.41450433      -0.00000000
          0.00000000      -0.00000000       3.21498733
 =======================================================

       21             0.0000000992  (isotropic)


 =======================================================
   Intermediate polarization tensor
 =======================================================
   ISOTROPIC:        3.89723194
   ANISOTROPIC:      7.30533834
   Trace =          11.69169582
   Full Tensor:
          0.06220417       0.00000000       0.00000000
          0.00000000       8.41450433      -0.00000000
          0.00000000      -0.00000000       3.21498733
 =======================================================

       22             0.0000000750  (isotropic)


 =======================================================
   Intermediate polarization tensor
 =======================================================
   ISOTROPIC:        3.89723189
   ANISOTROPIC:      7.30533848
   Trace =          11.69169566
   Full Tensor:
          0.06220400       0.00000000       0.00000000
          0.00000000       8.41450433      -0.00000000
          0.00000000      -0.00000000       3.21498733
 =======================================================

       23             0.0000000564  (isotropic)


 =======================================================
   Intermediate polarization tensor
 =======================================================
   ISOTROPIC:        3.89723184
   ANISOTROPIC:      7.30533858
   Trace =          11.69169553
   Full Tensor:
          0.06220387       0.00000000       0.00000000
          0.00000000       8.41450433      -0.00000000
          0.00000000      -0.00000000       3.21498733
 =======================================================

       24             0.0000000424  (isotropic)


 =======================================================
   Intermediate polarization tensor
 =======================================================
   ISOTROPIC:        3.89723181
   ANISOTROPIC:      7.30533865
   Trace =          11.69169543
   Full Tensor:
          0.06220378       0.00000000       0.00000000
          0.00000000       8.41450433      -0.00000000
          0.00000000      -0.00000000       3.21498733
 =======================================================

       25             0.0000000318  (isotropic)


 =======================================================
   Intermediate polarization tensor
 =======================================================
   ISOTROPIC:        3.89723179
   ANISOTROPIC:      7.30533871
   Trace =          11.69169536
   Full Tensor:
          0.06220371       0.00000000       0.00000000
          0.00000000       8.41450433      -0.00000000
          0.00000000      -0.00000000       3.21498733
 =======================================================

       26             0.0000000236  (isotropic)


 =======================================================
   Intermediate polarization tensor
 =======================================================
   ISOTROPIC:        3.89723177
   ANISOTROPIC:      7.30533875
   Trace =          11.69169531
   Full Tensor:
          0.06220366       0.00000000       0.00000000
          0.00000000       8.41450433      -0.00000000
          0.00000000      -0.00000000       3.21498733
 =======================================================

       27             0.0000000171  (isotropic)


 =======================================================
   Intermediate polarization tensor
 =======================================================
   ISOTROPIC:        3.89723176
   ANISOTROPIC:      7.30533878
   Trace =          11.69169528
   Full Tensor:
          0.06220362       0.00000000       0.00000000
          0.00000000       8.41450433      -0.00000000
          0.00000000      -0.00000000       3.21498733
 =======================================================

       28             0.0000000118  (isotropic)


 =======================================================
   Intermediate polarization tensor
 =======================================================
   ISOTROPIC:        3.89723175
   ANISOTROPIC:      7.30533879
   Trace =          11.69169525
   Full Tensor:
          0.06220360       0.00000000       0.00000000
          0.00000000       8.41450433      -0.00000000
          0.00000000      -0.00000000       3.21498733
 =======================================================

       29             0.0000000074  (isotropic)


 =======================================================
   Intermediate polarization tensor
 =======================================================
   ISOTROPIC:        3.89723175
   ANISOTROPIC:      7.30533880
   Trace =          11.69169524
   Full Tensor:
          0.06220359       0.00000000       0.00000000
          0.00000000       8.41450433      -0.00000000
          0.00000000      -0.00000000       3.21498733
 =======================================================

       30             0.0000000040  (isotropic)


 =======================================================
   Intermediate polarization tensor
 =======================================================
   ISOTROPIC:        3.89723175
   ANISOTROPIC:      7.30533881
   Trace =          11.69169524
   Full Tensor:
          0.06220358       0.00000000       0.00000000
          0.00000000       8.41450433      -0.00000000
          0.00000000      -0.00000000       3.21498733
 =======================================================

       31             0.0000000017  (isotropic)


 =======================================================
   Intermediate polarization tensor
 =======================================================
   ISOTROPIC:        3.89723175
   ANISOTROPIC:      7.30533881
   Trace =          11.69169524
   Full Tensor:
          0.06220358       0.00000000       0.00000000
          0.00000000       8.41450433      -0.00000000
          0.00000000      -0.00000000       3.21498733
 =======================================================

       32             0.0000000005  (isotropic)



  ===== TDSCF converged after 32 iterations... =====


 TDSCF (1st order) time:  CPU       0.10 s  wall       0.10 s

               ======================================================= 
               ===                                                 === 
               ===                 Polarizability (a.u.)           === 
               ===                                                 === 
               ======================================================= 

   =================================================================================
   =   Frequency:            0.07731780 a.u.    =           2.10392438 eV          =
   =                                            =          35.22858161 x 10^-8 Hz  =
   =   Wavelength:         589.29964774 nm                                         =
   =   Wavenumber:       16969.29573660 cm^(-1)                                    =
   =================================================================================

      ISOTROPIC:      3.73538999          ANISOTROPIC:      6.99040193

      Trace =        11.20616998
      Full Tensor:

                      0.05289862            0.00000000            0.00000000
                      0.00000000            8.05009804           -0.00000000
                      0.00000000           -0.00000000            3.10317332


   =================================================================================
   =   Frequency:            0.15463560 a.u.    =           4.20784876 eV          =
   =                                            =          70.45716322 x 10^-8 Hz  =
   =   Wavelength:         294.64982387 nm                                         =
   =   Wavenumber:       33938.59147321 cm^(-1)                                    =
   =================================================================================

      ISOTROPIC:      3.89723175          ANISOTROPIC:      7.30533881

      Trace =        11.69169524
      Full Tensor:

                      0.06220358            0.00000000            0.00000000
                      0.00000000            8.41450433           -0.00000000
                      0.00000000           -0.00000000            3.21498733


  Dipole moment:
  --------------

                   Ex              Ey              Ez               Total

  (a.u.)       0.00000000      0.00000000      0.60352125         0.60352125
  (Debye)      0.00000000      0.00000000      1.53399981         1.53399981



 --- DONE ---


               ========================================================== 
               ===                                                    === 
               ===       Second Harmonic Generation     (a.u.)        === 
               ===                                                    === 
               ========================================================== 

   =================================================================================
   =   Frequency:            0.07731780 a.u.    =           2.10392438 eV          =
   =                                            =          35.22858161 x 10^-8 Hz  =
   =   Wavelength:         589.29964774 nm                                         =
   =   Wavenumber:       16969.29573660 cm^(-1)                                    =
   =================================================================================

      Full Tensor:

                          x                     y                     z

       xx            -0.00000000           -0.00000000            0.18268574
       yy            -0.00000000            0.00000000           -9.93851928
       zz            -0.00000000            0.00000000           -5.70568308
       xy            -0.00000000           -0.00000000            0.00000000
       xz             0.14326805            0.00000000            0.00000000
       yz             0.00000000          -10.05824143            0.00000000

  Averages:               x                     y                     z
                      0.00000000           -0.00000000           15.56760984
                     15.56760984




 --- DONE ---


WARNING: no symmetry was used (preliminary integrals)


      ======================================================== 
      =   LinK/CFMM integral contractions as described in:   = 
      =                                                      = 
      =            J. Kussmann and C. Ochsenfeld,            = 
      =            J. Chem. Phys. DOI: 10.1063/1.2794033     = 
      =            (2007)                                    = 
      ======================================================== 

 MO-PROP time:  CPU 0.10 s  wall 0.10 s 


 --------------------------------------------------------------

                    Orbital Energies (a.u.)
 --------------------------------------------------------------

 Alpha MOs
 -- Occupied --
-20.263  -1.210  -0.548  -0.437  -0.388
 -- Virtual --
  0.478   0.588
 --------------------------------------------------------------

          Ground-State Mulliken Net Atomic Charges

     Atom                 Charge (a.u.)
  ----------------------------------------
      1 O                    -0.253146
      2 H                     0.126573
      3 H                     0.126573
  ----------------------------------------
  Sum of atomic charges =     0.000000

 -----------------------------------------------------------------
                    Cartesian Multipole Moments
 -----------------------------------------------------------------
    Charge (ESU x 10^10)
                 0.0000
    Dipole Moment (Debye)
         X       0.0000      Y       0.0000      Z       1.5340
       Tot       1.5340
    Quadrupole Moments (Debye-Ang)
        XX      -6.2076     XY       0.0000     YY      -4.3168
        XZ      -0.0000     YZ       0.0000     ZZ      -5.2054
    Octopole Moments (Debye-Ang^2)
       XXX       0.0000    XXY       0.0000    XYY       0.0000
       YYY       0.0000    XXZ      -0.4476    XYZ       0.0000
       YYZ       0.3916    XZZ       0.0000    YZZ       0.0000
       ZZZ      -0.9572
    Hexadecapole Moments (Debye-Ang^3)
      XXXX      -3.3591   XXXY       0.0000   XXYY      -2.1047
      XYYY       0.0000   YYYY      -7.9263   XXXZ      -0.0000
      XXYZ       0.0000   XYYZ      -0.0000   YYYZ       0.0000
      XXZZ      -1.5957   XYZZ       0.0000   YYZZ      -1.9038
      XZZZ      -0.0000   YZZZ       0.0000   ZZZZ      -5.8351
 -----------------------------------------------------------------
Archival summary:
1\1\copper\SP\HF\STO-3G\12\eric\MonDec1821:13:292017MonDec1821:13:292017\0\\#,HF,STO-3G,\\0,1\O\H,1,1.1\H,1,1.1,2,104\\HF=-74.9420799\\@

 Total job time:  0.21s(wall), 0.20s(cpu) 
 Mon Dec 18 21:13:29 2017

        *************************************************************
        *                                                           *
        *  Thank you very much for using Q-Chem.  Have a nice day.  *
        *                                                           *
        *************************************************************


