
                                 *****************
                                 * O   R   C   A *
                                 *****************

           --- An Ab Initio, DFT and Semiempirical electronic structure package ---

                  #######################################################
                  #                        -***-                        #
                  #  Department of molecular theory and spectroscopy    #
                  #              Directorship: Frank Neese              #
                  # Max Planck Institute for Chemical Energy Conversion #
                  #                  D-45470 Muelheim/Ruhr              #
                  #                       Germany                       #
                  #                                                     #
                  #                  All rights reserved                #
                  #                        -***-                        #
                  #######################################################


                         Program Version 4.0.1.2 - RELEASE -


 With contributions from (in alphabetic order):
   Daniel Aravena         : Magnetic Properties
   Michael Atanasov       : Ab Initio Ligand Field Theory
   Ute Becker             : Parallelization
   Martin Brehm           : Molecular dynamics
   Dmytro Bykov           : SCF Hessian
   Vijay G. Chilkuri      : MRCI spin determinant printing
   Dipayan Datta          : RHF DLPNO-CCSD density
   Achintya Kumar Dutta   : EOM-CC, STEOM-CC
   Dmitry Ganyushin       : Spin-Orbit,Spin-Spin,Magnetic field MRCI
   Yang Guo               : DLPNO-NEVPT2, CIM, IAO-localization
   Andreas Hansen         : Spin unrestricted coupled pair/coupled cluster methods
   Lee Huntington         : MR-EOM, pCC
   Robert Izsak           : Overlap fitted RIJCOSX, COSX-SCS-MP3, EOM
   Christian Kollmar      : KDIIS, OOCD, Brueckner-CCSD(T), CCSD density
   Simone Kossmann        : Meta GGA functionals, TD-DFT gradient, OOMP2, MP2 Hessian
   Martin Krupicka        : AUTO-CI
   Dagmar Lenk            : GEPOL surface
   Dimitrios Liakos       : Extrapolation schemes; parallel MDCI
   Dimitrios Manganas     : ROCIS; embedding schemes
   Dimitrios Pantazis     : SARC Basis sets
   Taras Petrenko         : DFT Hessian,TD-DFT gradient, ASA, ECA, R-Raman, ABS, FL, XAS/XES, NRVS
   Peter Pinski           : DLPNO-MP2
   Christoph Reimann      : Effective Core Potentials
   Marius Retegan         : Local ZFS, SOC
   Christoph Riplinger    : Optimizer, TS searches, QM/MM, DLPNO-CCSD(T), (RO)-DLPNO pert. Triples
   Tobias Risthaus        : Range-separated hybrids, TD-DFT gradient, RPA, STAB
   Michael Roemelt        : Restricted open shell CIS
   Masaaki Saitow         : Open-shell DLPNO
   Barbara Sandhoefer     : DKH picture change effects
   Kantharuban Sivalingam : CASSCF convergence, NEVPT2, FIC-MRCI
   Georgi Stoychev        : AutoAux
   Boris Wezisla          : Elementary symmetry handling
   Frank Wennmohs         : Technical directorship


 We gratefully acknowledge several colleagues who have allowed us to
 interface, adapt or use parts of their codes:
   Stefan Grimme, W. Hujo, H. Kruse,             : VdW corrections, initial TS optimization,
                  C. Bannwarth                     DFT functionals, gCP, sTDA/sTD-DF
   Ed Valeev                                     : LibInt (2-el integral package), F12 methods
   Garnet Chan, S. Sharma, J. Yang, R. Olivares  : DMRG
   Ulf Ekstrom                                   : XCFun DFT Library
   Mihaly Kallay                                 : mrcc  (arbitrary order and MRCC methods)
   Andreas Klamt, Michael Diedenhofen            : otool_cosmo (COSMO solvation model)
   Jiri Pittner, Ondrej Demel                    : Mk-CCSD
   Frank Weinhold                                : gennbo (NPA and NBO analysis)
   Christopher J. Cramer and Donald G. Truhlar   : smd solvation model


 Your calculation uses the libint2 library for the computation of 2-el integrals
 For citations please refer to: http://libint.valeyev.net

 This ORCA versions uses:
   CBLAS   interface :  Fast vector & matrix operations
   LAPACKE interface :  Fast linear algebra routines
   SCALAPACK package :  Parallel linear algebra routines


Your calculation utilizes the basis: STO-3G
   H-Ne       : W. J. Hehre, R. F. Stewart and J. A. Pople, J. Chem. Phys. 2657 (1969).
   Na-Ar      : W. J. Hehre, R. Ditchfield, R. F. Stewart and J. A. Pople, J. Chem. Phys. 2769 (1970).
   K,Ca,Ga-Kr : W. J. Pietro, B. A. Levy, W. J. Hehre and R. F. Stewart, J. Am. Chem. Soc. 19, 2225 (1980).
   Sc-Zn,Y-Cd : W. J. Pietro and W. J. Hehre, J. Comp. Chem. 4, 241 (1983).

================================================================================
                                        WARNINGS
                       Please study these warnings very carefully!
================================================================================

Warning: TCutStore was < 0. Adjusted to Thresh (uncritical)
INFO   : Checking CIS options ...

WARNING: CIS/ROCIS methods need fully converged wavefunctions
  ===> : Setting SCFConvForced true
         You can overwrite this default with %scf ConvForced false 


INFO   : the flag for use of LIBINT has been found!

================================================================================
                                       INPUT FILE
================================================================================
NAME = orca_singlet_tda.in
|  1> ! rhf sto-3g nori verytightscf noautostart
|  2> 
|  3> %tddft
|  4>  ewin -10000,10000
|  5>  maxdim 100
|  6>  nroots 100
|  7>  tda true
|  8>  end
|  9> 
| 10> * xyz 1 1
| 11> C     -0.0008286620   -0.0004493055   -0.0003241160
| 12> H      0.0005419438   -0.0005510523    1.0881223132
| 13> B      0.7614042004    0.0000912434   -1.2402303969
| 14> H      1.5507850082   -0.3250641117   -2.0682935236
| 15> C     -0.5677515230    0.9696516240   -0.9682785376
| 16> H     -0.6787643958    2.0262293122   -0.6791165638
| 17> H     -1.3308161697    0.6715931113   -1.7152165963
| 18> *
| 19> 
| 20>                          ****END OF INPUT****
================================================================================

                       ****************************
                       * Single Point Calculation *
                       ****************************

---------------------------------
CARTESIAN COORDINATES (ANGSTROEM)
---------------------------------
  C     -0.000829   -0.000449   -0.000324
  H      0.000542   -0.000551    1.088122
  B      0.761404    0.000091   -1.240230
  H      1.550785   -0.325064   -2.068294
  C     -0.567752    0.969652   -0.968279
  H     -0.678764    2.026229   -0.679117
  H     -1.330816    0.671593   -1.715217

----------------------------
CARTESIAN COORDINATES (A.U.)
----------------------------
  NO LB      ZA    FRAG     MASS         X           Y           Z
   0 C     6.0000    0    12.011   -0.001566   -0.000849   -0.000612
   1 H     1.0000    0     1.008    0.001024   -0.001041    2.056253
   2 B     5.0000    0    10.810    1.438845    0.000172   -2.343696
   3 H     1.0000    0     1.008    2.930559   -0.614282   -3.908508
   4 C     6.0000    0    12.011   -1.072895    1.832376   -1.829781
   5 H     1.0000    0     1.008   -1.282679    3.829018   -1.283344
   6 H     1.0000    0     1.008   -2.514878    1.269127   -3.241290

--------------------------------
INTERNAL COORDINATES (ANGSTROEM)
--------------------------------
 C      0   0   0     0.000000000000     0.00000000     0.00000000
 H      1   0   0     1.088447296910     0.00000000     0.00000000
 B      1   2   0     1.455461031471   148.34671090     0.00000000
 H      3   1   2     1.189342930560   160.15437002    53.76362204
 C      1   2   3     1.483048585191   130.78488076   239.78141158
 H      5   1   2     1.101042649592   119.65932196    27.11524421
 H      5   1   2     1.108613095526   121.80293813   239.11098589

---------------------------
INTERNAL COORDINATES (A.U.)
---------------------------
 C      0   0   0     0.000000000000     0.00000000     0.00000000
 H      1   0   0     2.056867302367     0.00000000     0.00000000
 B      1   2   0     2.750422748075   148.34671090     0.00000000
 H      3   1   2     2.247532418074   160.15437002    53.76362204
 C      1   2   3     2.802555669310   130.78488076   239.78141158
 H      5   1   2     2.080669069497   119.65932196    27.11524421
 H      5   1   2     2.094975139022   121.80293813   239.11098589

---------------------
BASIS SET INFORMATION
---------------------
There are 3 groups of distinct atoms

 Group   1 Type C   : 6s3p contracted to 2s1p pattern {33/3}
 Group   2 Type H   : 3s contracted to 1s pattern {3}
 Group   3 Type B   : 6s3p contracted to 2s1p pattern {33/3}

Atom   0C    basis set group =>   1
Atom   1H    basis set group =>   2
Atom   2B    basis set group =>   3
Atom   3H    basis set group =>   2
Atom   4C    basis set group =>   1
Atom   5H    basis set group =>   2
Atom   6H    basis set group =>   2
------------------------------------------------------------------------------
                           ORCA GTO INTEGRAL CALCULATION
------------------------------------------------------------------------------

                         BASIS SET STATISTICS AND STARTUP INFO

 # of primitive gaussian shells          ...   39
 # of primitive gaussian functions       ...   57
 # of contracted shells                  ...   13
 # of contracted basis functions         ...   19
 Highest angular momentum                ...    1
 Maximum contraction depth               ...    3
 Integral package used                   ... LIBINT
 Integral threshhold            Thresh   ...  1.000e-12
 Primitive cut-off              TCut     ...  1.000e-14


------------------------------ INTEGRAL EVALUATION ----------------------------


 * One electron integrals 
 Pre-screening matrix                    ... done
 Shell pair data                         ... done (   0.000 sec)

-------------------------------------------------------------------------------
                                 ORCA SCF
-------------------------------------------------------------------------------

------------
SCF SETTINGS
------------
Hamiltonian:
 Ab initio Hamiltonian  Method          .... Hartree-Fock(GTOs)


General Settings:
 Integral files         IntName         .... orca_singlet_tda
 Hartree-Fock type      HFTyp           .... RHF
 Total Charge           Charge          ....    1
 Multiplicity           Mult            ....    1
 Number of Electrons    NEL             ....   20
 Basis Dimension        Dim             ....   19
 Nuclear Repulsion      ENuc            ....     55.1334812861 Eh

Convergence Acceleration:
 DIIS                   CNVDIIS         .... on
   Start iteration      DIISMaxIt       ....    12
   Startup error        DIISStart       ....  0.200000
   # of expansion vecs  DIISMaxEq       ....     5
   Bias factor          DIISBfac        ....   1.050
   Max. coefficient     DIISMaxC        ....  10.000
 Newton-Raphson         CNVNR           .... off
 SOSCF                  CNVSOSCF        .... on
   Start iteration      SOSCFMaxIt      ....   150
   Startup grad/error   SOSCFStart      ....  0.003300
 Level Shifting         CNVShift        .... on
   Level shift para.    LevelShift      ....    0.2500
   Turn off err/grad.   ShiftErr        ....    0.0010
 Zerner damping         CNVZerner       .... off
 Static damping         CNVDamp         .... on
   Fraction old density DampFac         ....    0.7000
   Max. Damping (<1)    DampMax         ....    0.9800
   Min. Damping (>=0)   DampMin         ....    0.0000
   Turn off err/grad.   DampErr         ....    0.1000
 Fernandez-Rico         CNVRico         .... off

SCF Procedure:
 Maximum # iterations   MaxIter         ....   125
 SCF integral mode      SCFMode         .... Direct
   Integral package                     .... LIBINT
 Reset frequeny         DirectResetFreq ....    20
 Integral Threshold     Thresh          ....  1.000e-12 Eh
 Primitive CutOff       TCut            ....  1.000e-14 Eh

Convergence Tolerance:
 Convergence Check Mode ConvCheckMode   .... Total+1el-Energy
 Convergence forced     ConvForced      .... 1
 Energy Change          TolE            ....  1.000e-09 Eh
 1-El. energy change                    ....  1.000e-06 Eh
 Orbital Gradient       TolG            ....  2.000e-06
 Orbital Rotation angle TolX            ....  2.000e-06
 DIIS Error             TolErr          ....  1.000e-08


Diagonalization of the overlap matrix:
Smallest eigenvalue                        ... 2.066e-01
Time for diagonalization                   ...    0.000 sec
Threshold for overlap eigenvalues          ... 1.000e-08
Number of eigenvalues below threshold      ... 0
Time for construction of square roots      ...    0.000 sec
Total time needed                          ...    0.000 sec

-------------------
DFT GRID GENERATION
-------------------

General Integration Accuracy     IntAcc      ...  4.340
Radial Grid Type                 RadialGrid  ... Gauss-Chebyshev
Angular Grid (max. acc.)         AngularGrid ... Lebedev-110
Angular grid pruning method      GridPruning ... 3 (G Style)
Weight generation scheme         WeightScheme... Becke
Basis function cutoff            BFCut       ...    1.0000e-12
Integration weight cutoff        WCut        ...    1.0000e-14
Grids for H and He will be reduced by one unit

# of grid points (after initial pruning)     ...   8166 (   0.0 sec)
# of grid points (after weights+screening)   ...   7879 (   0.0 sec)
nearest neighbour list constructed           ...    0.0 sec
Grid point re-assignment to atoms done       ...    0.0 sec
Grid point division into batches done        ...    0.0 sec
Reduced shell lists constructed in    0.0 sec

Total number of grid points                  ...     7879
Total number of batches                      ...      126
Average number of points per batch           ...       62
Average number of grid points per atom       ...     1126
Average number of shells per batch           ...    11.22 (86.31%)
Average number of basis functions per batch  ...    17.09 (89.97%)
Average number of large shells per batch     ...    10.41 (92.77%)
Average number of large basis fcns per batch ...    16.08 (94.06%)
Maximum spatial batch extension              ...  26.49, 30.26, 24.26 au
Average spatial batch extension              ...   5.22,  5.43,  5.11 au

Time for grid setup =    0.034 sec

------------------------------
INITIAL GUESS: MODEL POTENTIAL
------------------------------
Loading Hartree-Fock densities                     ... done
Calculating cut-offs                               ... done
Setting up the integral package                    ... done
Initializing the effective Hamiltonian             ... done
Starting the Coulomb interaction                   ... done (   0.0 sec)
Reading the grid                                   ... done
Mapping shells                                     ... done
Starting the XC term evaluation                    ... done (   0.0 sec)
Transforming the Hamiltonian                       ... done (   0.0 sec)
Diagonalizing the Hamiltonian                      ... done (   0.0 sec)
Back transforming the eigenvectors                 ... done (   0.0 sec)
Now organizing SCF variables                       ... done
                      ------------------
                      INITIAL GUESS DONE (   0.2 sec)
                      ------------------
--------------
SCF ITERATIONS
--------------
ITER       Energy         Delta-E        Max-DP      RMS-DP      [F,P]     Damp
               ***  Starting incremental Fock matrix formation  ***
  0   -101.0966393469   0.000000000000 0.02286477  0.00344620  0.0577629 0.7000
  1   -101.1022107360  -0.005571389050 0.01965761  0.00296990  0.0422315 0.7000
                               ***Turning on DIIS***
  2   -101.1063942034  -0.004183467453 0.04926541  0.00729174  0.0305772 0.0000
  3   -101.1250470647  -0.018652861281 0.01212822  0.00196171  0.0161303 0.0000
  4   -101.1233948806   0.001652184135 0.00970191  0.00137410  0.0071716 0.0000
  5   -101.1179264278   0.005468452825 0.00487221  0.00087311  0.0043803 0.0000
                      *** Initiating the SOSCF procedure ***
                           *** Shutting down DIIS ***
                      *** Re-Reading the Fockian *** 
                      *** Removing any level shift *** 
ITER      Energy       Delta-E        Grad      Rot      Max-DP    RMS-DP
  6   -101.11870540  -0.0007789735  0.001990  0.001990  0.002082  0.000336
               *** Restarting incremental Fock matrix formation ***
  7   -101.11843801   0.0002673958  0.000444  0.000721  0.000506  0.000093
  8   -101.11843979  -0.0000017798  0.000156  0.000592  0.000795  0.000108
  9   -101.11844038  -0.0000005935  0.000047  0.000093  0.000119  0.000018
 10   -101.11844041  -0.0000000306  0.000013  0.000046  0.000035  0.000007
 11   -101.11844041  -0.0000000054  0.000008  0.000053  0.000039  0.000007
 12   -101.11844042  -0.0000000022  0.000004  0.000021  0.000014  0.000003
 13   -101.11844042  -0.0000000004  0.000002  0.000007  0.000006  0.000001
                 **** Energy Check signals convergence ****
              ***Rediagonalizing the Fockian in SOSCF/NRSCF***

               *****************************************************
               *                     SUCCESS                       *
               *           SCF CONVERGED AFTER  14 CYCLES          *
               *****************************************************


----------------
TOTAL SCF ENERGY
----------------

Total Energy       :         -101.11844042 Eh           -2751.57265 eV

Components:
Nuclear Repulsion  :           55.13348129 Eh            1500.25830 eV
Electronic Energy  :         -156.25192170 Eh           -4251.83095 eV
One Electron Energy:         -238.65884751 Eh           -6494.23740 eV
Two Electron Energy:           82.40692580 Eh            2242.40645 eV

Virial components:
Potential Energy   :         -201.28122347 Eh           -5477.14054 eV
Kinetic Energy     :          100.16278305 Eh            2725.56789 eV
Virial Ratio       :            2.00954104


---------------
SCF CONVERGENCE
---------------

  Last Energy change         ...   -8.2622e-11  Tolerance :   1.0000e-09
  Last MAX-Density change    ...    1.1597e-06  Tolerance :   1.0000e-08
  Last RMS-Density change    ...    2.0466e-07  Tolerance :   1.0000e-09
  Last Orbital Gradient      ...    3.7940e-07  Tolerance :   2.0000e-06
  Last Orbital Rotation      ...    5.2928e-07  Tolerance :   2.0000e-06

             **** THE GBW FILE WAS UPDATED (orca_singlet_tda.gbw) ****
             **** DENSITY FILE WAS UPDATED (orca_singlet_tda.scfp.tmp) ****
             **** ENERGY FILE WAS UPDATED (orca_singlet_tda.en.tmp) ****
----------------
ORBITAL ENERGIES
----------------

  NO   OCC          E(Eh)            E(eV) 
   0   2.0000     -11.430443      -311.0382 
   1   2.0000     -11.358064      -309.0686 
   2   2.0000      -7.765501      -211.3100 
   3   2.0000      -1.341215       -36.4963 
   4   2.0000      -1.046702       -28.4822 
   5   2.0000      -0.949016       -25.8240 
   6   2.0000      -0.838317       -22.8118 
   7   2.0000      -0.817102       -22.2345 
   8   2.0000      -0.733058       -19.9475 
   9   2.0000      -0.643081       -17.4991 
  10   0.0000      -0.201553        -5.4845 
  11   0.0000       0.021306         0.5798 
  12   0.0000       0.179474         4.8837 
  13   0.0000       0.262361         7.1392 
  14   0.0000       0.329030         8.9534 
  15   0.0000       0.391246        10.6464 
  16   0.0000       0.444949        12.1077 
  17   0.0000       0.500143        13.6096 
  18   0.0000       0.752622        20.4799 

                    ********************************
                    * MULLIKEN POPULATION ANALYSIS *
                    ********************************

-----------------------
MULLIKEN ATOMIC CHARGES
-----------------------
   0 C :    0.059030
   1 H :    0.211880
   2 B :    0.421885
   3 H :    0.077828
   4 C :   -0.171323
   5 H :    0.187149
   6 H :    0.213551
Sum of atomic charges:    1.0000000

--------------------------------
MULLIKEN REDUCED ORBITAL CHARGES
--------------------------------
  0 C s       :     3.305540  s :     3.305540
      pz      :     1.111156  p :     2.635430
      px      :     0.914876
      py      :     0.609397
  1 H s       :     0.788120  s :     0.788120
  2 B s       :     2.939573  s :     2.939573
      pz      :     0.659557  p :     1.638542
      px      :     0.364048
      py      :     0.614938
  3 H s       :     0.922172  s :     0.922172
  4 C s       :     3.216178  s :     3.216178
      pz      :     1.009328  p :     2.955145
      px      :     0.948722
      py      :     0.997096
  5 H s       :     0.812851  s :     0.812851
  6 H s       :     0.786449  s :     0.786449


                     *******************************
                     * LOEWDIN POPULATION ANALYSIS *
                     *******************************

----------------------
LOEWDIN ATOMIC CHARGES
----------------------
   0 C :    0.217323
   1 H :    0.147618
   2 B :    0.327663
   3 H :    0.050464
   4 C :   -0.041096
   5 H :    0.133407
   6 H :    0.164622

-------------------------------
LOEWDIN REDUCED ORBITAL CHARGES
-------------------------------
  0 C s       :     3.131517  s :     3.131517
      pz      :     1.092432  p :     2.651160
      px      :     0.930399
      py      :     0.628328
  1 H s       :     0.852382  s :     0.852382
  2 B s       :     2.915200  s :     2.915200
      pz      :     0.714491  p :     1.757137
      px      :     0.401547
      py      :     0.641099
  3 H s       :     0.949536  s :     0.949536
  4 C s       :     3.041856  s :     3.041856
      pz      :     1.040897  p :     2.999240
      px      :     0.953534
      py      :     1.004809
  5 H s       :     0.866593  s :     0.866593
  6 H s       :     0.835378  s :     0.835378


                      *****************************
                      * MAYER POPULATION ANALYSIS *
                      *****************************

  NA   - Mulliken gross atomic population
  ZA   - Total nuclear charge
  QA   - Mulliken gross atomic charge
  VA   - Mayer's total valence
  BVA  - Mayer's bonded valence
  FA   - Mayer's free valence

  ATOM       NA         ZA         QA         VA         BVA        FA
  0 C      5.9410     6.0000     0.0590     3.4364     3.4364     0.0000
  1 H      0.7881     1.0000     0.2119     0.9551     0.9551    -0.0000
  2 B      4.5781     5.0000     0.4219     2.9642     2.9642     0.0000
  3 H      0.9222     1.0000     0.0778     0.9939     0.9939    -0.0000
  4 C      6.1713     6.0000    -0.1713     3.9055     3.9055    -0.0000
  5 H      0.8129     1.0000     0.1871     0.9650     0.9650     0.0000
  6 H      0.7864     1.0000     0.2136     0.9544     0.9544     0.0000

  Mayer bond orders larger than 0.1
B(  0-C ,  1-H ) :   0.9295 B(  0-C ,  2-B ) :   1.1432 B(  0-C ,  4-C ) :   1.3027 
B(  2-B ,  3-H ) :   0.9806 B(  2-B ,  4-C ) :   0.7810 B(  4-C ,  5-H ) :   0.9245 
B(  4-C ,  6-H ) :   0.8865 

-------
TIMINGS
-------

Total SCF time: 0 days 0 hours 0 min 1 sec 

Total time                  ....       1.874 sec
Sum of individual times     ....       1.868 sec  ( 99.6%)

Fock matrix formation       ....       1.682 sec  ( 89.7%)
Diagonalization             ....       0.001 sec  (  0.1%)
Density matrix formation    ....       0.000 sec  (  0.0%)
Population analysis         ....       0.001 sec  (  0.0%)
Initial guess               ....       0.131 sec  (  7.0%)
Orbital Transformation      ....       0.000 sec  (  0.0%)
Orbital Orthonormalization  ....       0.000 sec  (  0.0%)
DIIS solution               ....       0.001 sec  (  0.0%)
SOSCF solution              ....       0.018 sec  (  1.0%)
------------------------------------------------------------------------------
                         ORCA CIS CALCULATION
------------------------------------------------------------------------------

Input orbitals are from        ... orca_singlet_tda.gbw
CI-vector output               ... orca_singlet_tda.cis
Tamm-Dancoff approximation     ... operative
CIS-Integral strategy          ... AO-integrals
Integral handling              ... AO integral Direct
Max. core memory used          ... 512 MB
Reference state                ... RHF
Generation of triplets         ... off
Number of operators            ... 1
Orbital ranges used for CIS calculation:
 Operator 0:  Orbitals   3...  9  to  10... 18
XAS localization array:
 Operator 0:  Orbitals  -1... -1
-------------------
XC-INTEGRATION GRID
-------------------

General Integration Accuracy     IntAcc      ...  3.670
Radial Grid Type                 RadialGrid  ... Gauss-Chebyshev
Angular Grid (max. acc.)         AngularGrid ... Lebedev-50
Angular grid pruning method      GridPruning ... 3 (G Style)
Weight generation scheme         WeightScheme... Becke
Basis function cutoff            BFCut       ...    1.0000e-12
Integration weight cutoff        WCut        ...    1.0000e-14
Grids for H and He will be reduced by one unit

# of grid points (after initial pruning)     ...   3886 (   0.0 sec)
# of grid points (after weights+screening)   ...   3750 (   0.0 sec)
nearest neighbour list constructed           ...    0.0 sec
Grid point re-assignment to atoms done       ...    0.0 sec
Grid point division into batches done        ...    0.0 sec
Reduced shell lists constructed in    0.0 sec

Total number of grid points                  ...     3750
Total number of batches                      ...       61
Average number of points per batch           ...       61
Average number of grid points per atom       ...      536
Average number of shells per batch           ...    11.47 (88.21%)
Average number of basis functions per batch  ...    17.37 (91.43%)
Average number of large shells per batch     ...    11.00 (95.92%)
Average number of large basis fcns per batch ...    16.90 (97.31%)
Maximum spatial batch extension              ...  23.70, 23.61, 22.52 au
Average spatial batch extension              ...   6.52,  6.81,  6.71 au



------------------------
DAVIDSON-DIAGONALIZATION
------------------------

Dimension of the eigenvalue problem            ...     63
Number of roots to be determined               ...     63
Maximum size of the expansion space            ...     63
Convergence tolerance for the residual         ...    1.000e-07
Convergence tolerance for the energies         ...    1.000e-07
Orthogonality tolerance                        ...    1.000e-14
Level Shift                                    ...    0.000e+00
Constructing the preconditioner                ... o.k.
Building the initial guess                     ... WARNING (orca_cis): NRoots > NCSFs. Resetting to NCSFs
o.k.
Number of trial vectors determined             ...     63


                       ****Iteration    0****

   Memory handling for direct AO based CIS:
   Memory per vector needed      ...     1 MB
   Memory needed                 ...     0 MB
   Memory available              ...   512 MB
   Number of vectors per batch   ...   512
   Number of batches             ...     1
   Time for densities:     0.001
   Using LibInt in JK Direct
   Time for J+K (Direct):     0.154
   Time for Sigma-Completion:     0.001
   Size of expansion space: 63
   Lowest Energy          :     0.125218836911
   Maximum Energy change  :     1.752286446480 (vector 62)
   Maximum residual norm  :     0.000000000000

      *** CONVERGENCE OF RESIDUAL NORM REACHED ***

Storing the converged CI vectors               ... orca_singlet_tda.cis1

                 *** DAVIDSON DONE ***

Total time for solving the CIS problem:     0.242sec

Warning: NRoots is different from the actual no of eigenvectors?!


-----------------------------
CIS-EXCITED STATES (SINGLETS)
-----------------------------

the weight of the individual excitations are printed if larger than 0.01

STATE  1:  E=   0.125219 au      3.407 eV    27482.4 cm**-1
     8a ->  10a  :     0.055455 (c= -0.23548972)
     9a ->  10a  :     0.903744 (c=  0.95065450)

STATE  2:  E=   0.160132 au      4.357 eV    35145.0 cm**-1
     6a ->  10a  :     0.041228 (c= -0.20304602)
     8a ->  10a  :     0.851909 (c=  0.92298934)
     8a ->  11a  :     0.016341 (c= -0.12783019)
     9a ->  10a  :     0.052756 (c=  0.22968746)

STATE  3:  E=   0.304206 au      8.278 eV    66765.5 cm**-1
     4a ->  10a  :     0.010475 (c=  0.10234626)
     5a ->  10a  :     0.078312 (c=  0.27984327)
     6a ->  10a  :     0.551371 (c=  0.74254354)
     7a ->  10a  :     0.010129 (c=  0.10064215)
     8a ->  10a  :     0.022575 (c=  0.15025086)
     8a ->  11a  :     0.022709 (c=  0.15069507)
     9a ->  11a  :     0.261238 (c=  0.51111453)

STATE  4:  E=   0.330029 au      8.981 eV    72432.9 cm**-1
     7a ->  10a  :     0.629176 (c=  0.79320602)
     8a ->  11a  :     0.152419 (c=  0.39040930)
     9a ->  11a  :     0.127588 (c= -0.35719506)
     9a ->  12a  :     0.037215 (c= -0.19291203)

STATE  5:  E=   0.346364 au      9.425 eV    76018.0 cm**-1
     5a ->  10a  :     0.027825 (c= -0.16680926)
     6a ->  10a  :     0.188792 (c=  0.43450210)
     7a ->  10a  :     0.237617 (c= -0.48745951)
     8a ->  10a  :     0.012926 (c=  0.11369063)
     8a ->  11a  :     0.115027 (c=  0.33915626)
     8a ->  12a  :     0.020610 (c=  0.14356237)
     9a ->  11a  :     0.333374 (c= -0.57738526)

STATE  6:  E=   0.394249 au     10.728 eV    86527.7 cm**-1
     5a ->  10a  :     0.414962 (c= -0.64417542)
     5a ->  11a  :     0.026948 (c=  0.16415717)
     6a ->  10a  :     0.023458 (c= -0.15316097)
     6a ->  11a  :     0.013373 (c=  0.11564248)
     8a ->  11a  :     0.259558 (c=  0.50946858)
     8a ->  12a  :     0.024113 (c= -0.15528393)
     9a ->  11a  :     0.179378 (c=  0.42353055)
     9a ->  12a  :     0.012528 (c=  0.11192878)

STATE  7:  E=   0.428824 au     11.669 eV    94116.0 cm**-1
     4a ->  10a  :     0.014835 (c=  0.12179963)
     4a ->  11a  :     0.012369 (c= -0.11121780)
     5a ->  10a  :     0.360716 (c=  0.60059634)
     6a ->  10a  :     0.137481 (c= -0.37078371)
     6a ->  11a  :     0.020195 (c= -0.14211073)
     7a ->  10a  :     0.034337 (c= -0.18530297)
     8a ->  11a  :     0.399707 (c=  0.63222359)

STATE  8:  E=   0.525677 au     14.304 eV   115372.7 cm**-1
     4a ->  10a  :     0.152609 (c= -0.39065255)
     5a ->  10a  :     0.016311 (c=  0.12771583)
     6a ->  11a  :     0.310826 (c=  0.55751739)
     6a ->  12a  :     0.013184 (c= -0.11482155)
     7a ->  10a  :     0.023034 (c= -0.15176988)
     7a ->  11a  :     0.255847 (c=  0.50581369)
     8a ->  10a  :     0.012851 (c= -0.11336304)
     9a ->  12a  :     0.149071 (c= -0.38609738)
     9a ->  13a  :     0.012970 (c= -0.11388468)

STATE  9:  E=   0.540485 au     14.707 eV   118622.8 cm**-1
     4a ->  10a  :     0.104987 (c=  0.32401712)
     5a ->  10a  :     0.028482 (c= -0.16876668)
     6a ->  11a  :     0.174239 (c= -0.41741982)
     7a ->  11a  :     0.015311 (c=  0.12373943)
     8a ->  10a  :     0.010021 (c=  0.10010438)
     8a ->  14a  :     0.014770 (c= -0.12153103)
     9a ->  12a  :     0.572793 (c= -0.75683100)

STATE 10:  E=   0.573778 au     15.613 eV   125929.8 cm**-1
     4a ->  10a  :     0.501401 (c=  0.70809646)
     6a ->  11a  :     0.160937 (c=  0.40117004)
     7a ->  11a  :     0.112668 (c=  0.33566062)
     8a ->  12a  :     0.054135 (c= -0.23266913)
     8a ->  13a  :     0.035731 (c= -0.18902636)
     9a ->  11a  :     0.021002 (c= -0.14491935)
     9a ->  12a  :     0.011041 (c=  0.10507627)
     9a ->  13a  :     0.060403 (c=  0.24577097)

STATE 11:  E=   0.581330 au     15.819 eV   127587.3 cm**-1
     6a ->  10a  :     0.014202 (c=  0.11917059)
     6a ->  11a  :     0.157788 (c=  0.39722533)
     7a ->  11a  :     0.453247 (c= -0.67323655)
     8a ->  12a  :     0.223043 (c= -0.47227480)
     8a ->  13a  :     0.012715 (c=  0.11276143)
     8a ->  14a  :     0.012552 (c= -0.11203753)
     9a ->  12a  :     0.077359 (c= -0.27813426)

STATE 12:  E=   0.585855 au     15.942 eV   128580.4 cm**-1
     4a ->  10a  :     0.043081 (c=  0.20755929)
     6a ->  11a  :     0.011878 (c= -0.10898636)
     7a ->  12a  :     0.011925 (c= -0.10920017)
     8a ->  13a  :     0.015867 (c=  0.12596621)
     8a ->  14a  :     0.013620 (c= -0.11670647)
     9a ->  13a  :     0.343785 (c= -0.58633178)
     9a ->  14a  :     0.430793 (c= -0.65634789)
     9a ->  16a  :     0.035104 (c=  0.18735947)
     9a ->  17a  :     0.028727 (c= -0.16949041)

STATE 13:  E=   0.601804 au     16.376 eV   132080.7 cm**-1
     4a ->  10a  :     0.110987 (c=  0.33314769)
     5a ->  11a  :     0.011641 (c=  0.10789238)
     6a ->  11a  :     0.070014 (c=  0.26460190)
     7a ->  11a  :     0.035365 (c= -0.18805631)
     7a ->  12a  :     0.011397 (c= -0.10675582)
     8a ->  12a  :     0.362194 (c=  0.60182593)
     9a ->  13a  :     0.216175 (c= -0.46494658)
     9a ->  14a  :     0.124423 (c=  0.35273639)
     9a ->  17a  :     0.011268 (c=  0.10615261)

STATE 14:  E=   0.617442 au     16.801 eV   135512.9 cm**-1
     5a ->  11a  :     0.012785 (c= -0.11306923)
     6a ->  11a  :     0.037154 (c= -0.19275469)
     7a ->  11a  :     0.053794 (c=  0.23193551)
     8a ->  12a  :     0.216214 (c= -0.46498768)
     8a ->  13a  :     0.065035 (c= -0.25501884)
     9a ->  11a  :     0.010843 (c= -0.10412999)
     9a ->  13a  :     0.302092 (c= -0.54962887)
     9a ->  14a  :     0.224865 (c=  0.47419964)
     9a ->  17a  :     0.013713 (c=  0.11710338)

STATE 15:  E=   0.656275 au     17.858 eV   144035.8 cm**-1
     6a ->  12a  :     0.104323 (c= -0.32299072)
     7a ->  12a  :     0.794959 (c=  0.89160491)
     7a ->  13a  :     0.014561 (c=  0.12067051)

STATE 16:  E=   0.668278 au     18.185 eV   146670.1 cm**-1
     3a ->  11a  :     0.016850 (c= -0.12980708)
     5a ->  10a  :     0.024572 (c= -0.15675378)
     5a ->  11a  :     0.627584 (c= -0.79220181)
     6a ->  12a  :     0.076966 (c= -0.27742740)
     8a ->  13a  :     0.132798 (c=  0.36441510)
     9a ->  15a  :     0.021708 (c=  0.14733628)
     9a ->  16a  :     0.034713 (c= -0.18631341)

STATE 17:  E=   0.678762 au     18.470 eV   148971.1 cm**-1
     4a ->  10a  :     0.010161 (c= -0.10080070)
     5a ->  11a  :     0.245516 (c= -0.49549574)
     6a ->  12a  :     0.208453 (c=  0.45656638)
     7a ->  11a  :     0.016677 (c= -0.12913957)
     7a ->  12a  :     0.020561 (c=  0.14339247)
     8a ->  12a  :     0.014733 (c=  0.12137857)
     8a ->  13a  :     0.266440 (c= -0.51617868)
     8a ->  14a  :     0.047878 (c=  0.21881055)
     9a ->  12a  :     0.033539 (c= -0.18313645)
     9a ->  14a  :     0.034719 (c= -0.18633035)
     9a ->  15a  :     0.014832 (c= -0.12178514)

STATE 18:  E=   0.710486 au     19.333 eV   155933.7 cm**-1
     6a ->  12a  :     0.450077 (c= -0.67087755)
     6a ->  14a  :     0.028581 (c= -0.16905942)
     7a ->  12a  :     0.078679 (c= -0.28049689)
     7a ->  14a  :     0.010750 (c= -0.10368267)
     8a ->  13a  :     0.246798 (c= -0.49678799)
     8a ->  14a  :     0.054807 (c=  0.23410848)
     9a ->  12a  :     0.011105 (c= -0.10537915)
     9a ->  14a  :     0.026301 (c= -0.16217605)
     9a ->  15a  :     0.021287 (c=  0.14590103)
     9a ->  16a  :     0.012452 (c= -0.11158891)

STATE 19:  E=   0.722363 au     19.656 eV   158540.3 cm**-1
     5a ->  11a  :     0.016470 (c= -0.12833393)
     6a ->  12a  :     0.074034 (c= -0.27209271)
     9a ->  14a  :     0.056228 (c=  0.23712345)
     9a ->  15a  :     0.226436 (c= -0.47585338)
     9a ->  16a  :     0.553022 (c=  0.74365455)

STATE 20:  E=   0.742864 au     20.214 eV   163039.8 cm**-1
     3a ->  10a  :     0.015860 (c= -0.12593457)
     5a ->  12a  :     0.033763 (c= -0.18374622)
     8a ->  14a  :     0.049700 (c=  0.22293464)
     9a ->  15a  :     0.574626 (c= -0.75804070)
     9a ->  16a  :     0.219134 (c= -0.46811729)
     9a ->  17a  :     0.026949 (c=  0.16416256)

STATE 21:  E=   0.758386 au     20.637 eV   166446.5 cm**-1
     3a ->  10a  :     0.017730 (c=  0.13315516)
     5a ->  17a  :     0.011402 (c= -0.10677910)
     6a ->  13a  :     0.027629 (c= -0.16622093)
     7a ->  14a  :     0.046783 (c=  0.21629341)
     7a ->  15a  :     0.021751 (c=  0.14748142)
     7a ->  16a  :     0.013075 (c= -0.11434708)
     8a ->  13a  :     0.082150 (c= -0.28661771)
     8a ->  14a  :     0.546106 (c= -0.73898981)
     8a ->  15a  :     0.018331 (c= -0.13539036)
     9a ->  15a  :     0.033377 (c= -0.18269508)
     9a ->  16a  :     0.083400 (c= -0.28879109)

STATE 22:  E=   0.780928 au     21.250 eV   171393.8 cm**-1
     3a ->  10a  :     0.011318 (c=  0.10638715)
     5a ->  12a  :     0.074206 (c=  0.27240751)
     6a ->  13a  :     0.233263 (c=  0.48297283)
     6a ->  14a  :     0.013222 (c= -0.11498761)
     7a ->  13a  :     0.153766 (c=  0.39213060)
     7a ->  14a  :     0.098569 (c=  0.31395650)
     7a ->  16a  :     0.014668 (c= -0.12111131)
     8a ->  14a  :     0.021344 (c=  0.14609694)
     8a ->  15a  :     0.306460 (c= -0.55358804)
     8a ->  16a  :     0.011751 (c=  0.10840195)
     8a ->  17a  :     0.013476 (c= -0.11608694)

STATE 23:  E=   0.786633 au     21.405 eV   172646.1 cm**-1
     3a ->  10a  :     0.273808 (c=  0.52326641)
     3a ->  11a  :     0.014549 (c= -0.12061810)
     4a ->  11a  :     0.551625 (c=  0.74271465)
     5a ->  12a  :     0.013740 (c=  0.11721912)
     8a ->  15a  :     0.054656 (c=  0.23378548)
     9a ->  17a  :     0.029953 (c= -0.17306905)

STATE 24:  E=   0.795846 au     21.656 eV   174668.1 cm**-1
     3a ->  10a  :     0.011089 (c= -0.10530460)
     5a ->  12a  :     0.052267 (c= -0.22862001)
     6a ->  14a  :     0.198100 (c= -0.44508445)
     7a ->  13a  :     0.058474 (c= -0.24181396)
     7a ->  14a  :     0.461011 (c=  0.67897786)
     7a ->  15a  :     0.020397 (c=  0.14281955)
     7a ->  17a  :     0.024150 (c=  0.15540312)
     8a ->  14a  :     0.020005 (c=  0.14144034)
     8a ->  15a  :     0.027193 (c=  0.16490394)
     9a ->  14a  :     0.012703 (c=  0.11270579)
     9a ->  17a  :     0.040377 (c= -0.20093962)

STATE 25:  E=   0.805408 au     21.916 eV   176766.6 cm**-1
     3a ->  10a  :     0.179011 (c= -0.42309665)
     4a ->  11a  :     0.284859 (c=  0.53372182)
     4a ->  12a  :     0.010084 (c=  0.10041673)
     5a ->  12a  :     0.023843 (c= -0.15441222)
     6a ->  13a  :     0.051148 (c= -0.22616009)
     8a ->  15a  :     0.064882 (c= -0.25471970)
     9a ->  14a  :     0.011785 (c= -0.10855863)
     9a ->  15a  :     0.034805 (c=  0.18656171)
     9a ->  17a  :     0.269262 (c=  0.51890476)

STATE 26:  E=   0.807893 au     21.984 eV   177312.1 cm**-1
     3a ->  10a  :     0.233207 (c= -0.48291539)
     3a ->  12a  :     0.011608 (c=  0.10774189)
     5a ->  12a  :     0.509693 (c=  0.71392761)
     5a ->  14a  :     0.023202 (c= -0.15232334)
     6a ->  13a  :     0.020102 (c= -0.14178228)
     6a ->  14a  :     0.039514 (c= -0.19878191)
     8a ->  15a  :     0.048459 (c=  0.22013391)
     9a ->  15a  :     0.018193 (c= -0.13488218)
     9a ->  17a  :     0.023168 (c= -0.15221047)

STATE 27:  E=   0.813713 au     22.142 eV   178589.3 cm**-1
     3a ->  10a  :     0.195131 (c= -0.44173626)
     4a ->  11a  :     0.091375 (c=  0.30228289)
     5a ->  12a  :     0.100741 (c= -0.31739751)
     5a ->  13a  :     0.020561 (c=  0.14339230)
     6a ->  13a  :     0.185037 (c=  0.43015881)
     6a ->  14a  :     0.030508 (c=  0.17466430)
     7a ->  13a  :     0.017884 (c=  0.13373114)
     8a ->  12a  :     0.018451 (c=  0.13583360)
     8a ->  13a  :     0.050257 (c= -0.22418062)
     8a ->  14a  :     0.031550 (c= -0.17762271)
     9a ->  14a  :     0.015653 (c=  0.12511064)
     9a ->  17a  :     0.180863 (c= -0.42528023)

STATE 28:  E=   0.819220 au     22.292 eV   179798.1 cm**-1
     4a ->  12a  :     0.010905 (c= -0.10442469)
     5a ->  17a  :     0.010027 (c=  0.10013474)
     6a ->  13a  :     0.170634 (c=  0.41307811)
     6a ->  15a  :     0.015597 (c= -0.12488766)
     7a ->  13a  :     0.038786 (c=  0.19694048)
     7a ->  14a  :     0.030685 (c=  0.17517152)
     8a ->  14a  :     0.025188 (c= -0.15870609)
     8a ->  15a  :     0.278804 (c=  0.52801895)
     8a ->  17a  :     0.056559 (c=  0.23782108)
     8a ->  18a  :     0.010366 (c=  0.10181332)
     9a ->  14a  :     0.019925 (c= -0.14115747)
     9a ->  17a  :     0.269202 (c=  0.51884685)

STATE 29:  E=   0.844922 au     22.991 eV   185439.0 cm**-1
     5a ->  12a  :     0.037297 (c= -0.19312331)
     5a ->  13a  :     0.016984 (c= -0.13032210)
     5a ->  14a  :     0.023107 (c=  0.15200975)
     6a ->  13a  :     0.204269 (c= -0.45196132)
     7a ->  12a  :     0.011182 (c= -0.10574538)
     7a ->  13a  :     0.553098 (c=  0.74370548)
     7a ->  14a  :     0.010900 (c=  0.10440133)
     7a ->  16a  :     0.011517 (c= -0.10731538)
     8a ->  15a  :     0.017214 (c=  0.13120077)
     8a ->  16a  :     0.031747 (c=  0.17817807)

STATE 30:  E=   0.849888 au     23.127 eV   186528.9 cm**-1
     4a ->  12a  :     0.014493 (c=  0.12038774)
     5a ->  13a  :     0.025927 (c= -0.16101837)
     5a ->  14a  :     0.016004 (c=  0.12650742)
     5a ->  16a  :     0.010934 (c=  0.10456597)
     6a ->  17a  :     0.015327 (c=  0.12380084)
     7a ->  13a  :     0.033125 (c=  0.18200306)
     7a ->  14a  :     0.032195 (c=  0.17942898)
     7a ->  15a  :     0.013735 (c=  0.11719567)
     7a ->  16a  :     0.158777 (c=  0.39846833)
     8a ->  14a  :     0.010798 (c= -0.10391431)
     8a ->  16a  :     0.597261 (c= -0.77282636)
     8a ->  17a  :     0.014937 (c= -0.12221893)

STATE 31:  E=   0.882352 au     24.010 eV   193653.8 cm**-1
     4a ->  12a  :     0.092395 (c=  0.30396478)
     4a ->  13a  :     0.012010 (c=  0.10959189)
     4a ->  15a  :     0.011495 (c=  0.10721598)
     5a ->  12a  :     0.044845 (c= -0.21176736)
     5a ->  13a  :     0.026390 (c=  0.16244889)
     5a ->  14a  :     0.275877 (c= -0.52524008)
     5a ->  16a  :     0.023039 (c=  0.15178591)
     6a ->  14a  :     0.246885 (c= -0.49687510)
     7a ->  13a  :     0.055620 (c=  0.23583796)
     7a ->  14a  :     0.048653 (c= -0.22057364)
     7a ->  15a  :     0.023463 (c= -0.15317609)
     8a ->  14a  :     0.011578 (c= -0.10760146)
     8a ->  17a  :     0.061094 (c= -0.24717180)

STATE 32:  E=   0.898488 au     24.449 eV   197195.3 cm**-1
     6a ->  15a  :     0.146394 (c= -0.38261456)
     6a ->  16a  :     0.025878 (c= -0.16086702)
     6a ->  17a  :     0.097311 (c=  0.31194700)
     7a ->  15a  :     0.315377 (c=  0.56158475)
     7a ->  16a  :     0.038899 (c=  0.19722944)
     7a ->  17a  :     0.166664 (c= -0.40824479)
     8a ->  16a  :     0.054000 (c=  0.23237878)
     8a ->  17a  :     0.068466 (c= -0.26165937)

STATE 33:  E=   0.906025 au     24.654 eV   198849.4 cm**-1
     4a ->  12a  :     0.019324 (c=  0.13901198)
     5a ->  13a  :     0.051702 (c= -0.22738072)
     5a ->  14a  :     0.016576 (c=  0.12874925)
     5a ->  15a  :     0.010800 (c= -0.10392393)
     6a ->  14a  :     0.023095 (c=  0.15196973)
     6a ->  16a  :     0.071227 (c=  0.26688312)
     6a ->  17a  :     0.033564 (c=  0.18320439)
     7a ->  13a  :     0.018756 (c= -0.13695434)
     7a ->  16a  :     0.237728 (c= -0.48757325)
     7a ->  17a  :     0.013794 (c=  0.11744969)
     8a ->  15a  :     0.049359 (c=  0.22216932)
     8a ->  17a  :     0.370655 (c= -0.60881473)

STATE 34:  E=   0.921073 au     25.064 eV   202152.1 cm**-1
     4a ->  12a  :     0.259254 (c= -0.50916963)
     5a ->  13a  :     0.502623 (c=  0.70895908)
     6a ->  13a  :     0.042305 (c= -0.20568148)
     6a ->  16a  :     0.010896 (c=  0.10438278)
     8a ->  16a  :     0.032954 (c= -0.18153202)
     8a ->  17a  :     0.058669 (c= -0.24221779)
     9a ->  17a  :     0.011631 (c=  0.10784655)

STATE 35:  E=   0.938138 au     25.528 eV   205897.4 cm**-1
     4a ->  12a  :     0.352054 (c=  0.59334098)
     5a ->  12a  :     0.025143 (c=  0.15856414)
     5a ->  13a  :     0.191627 (c=  0.43775166)
     5a ->  14a  :     0.044924 (c= -0.21195338)
     6a ->  14a  :     0.191511 (c=  0.43761927)
     7a ->  14a  :     0.059473 (c=  0.24387056)
     8a ->  13a  :     0.012508 (c= -0.11183933)
     8a ->  14a  :     0.016760 (c=  0.12945912)
     8a ->  17a  :     0.012116 (c=  0.11007442)

STATE 36:  E=   0.961268 au     26.157 eV   210973.9 cm**-1
     4a ->  12a  :     0.164372 (c= -0.40542850)
     5a ->  12a  :     0.011772 (c= -0.10849869)
     5a ->  13a  :     0.047969 (c= -0.21901773)
     5a ->  14a  :     0.368124 (c= -0.60673185)
     5a ->  15a  :     0.023132 (c= -0.15209145)
     5a ->  16a  :     0.028048 (c=  0.16747472)
     5a ->  17a  :     0.018394 (c= -0.13562480)
     6a ->  14a  :     0.115926 (c=  0.34047898)
     6a ->  15a  :     0.011589 (c=  0.10765181)
     7a ->  14a  :     0.103132 (c=  0.32114236)
     7a ->  15a  :     0.010717 (c= -0.10352435)
     7a ->  16a  :     0.010225 (c=  0.10111685)
     8a ->  14a  :     0.016835 (c=  0.12974825)

STATE 37:  E=   0.981387 au     26.705 eV   215389.5 cm**-1
     3a ->  11a  :     0.010631 (c=  0.10310872)
     4a ->  14a  :     0.042784 (c= -0.20684242)
     5a ->  14a  :     0.033956 (c=  0.18427207)
     6a ->  15a  :     0.068727 (c= -0.26215750)
     7a ->  14a  :     0.028588 (c=  0.16907908)
     7a ->  15a  :     0.424348 (c= -0.65141988)
     7a ->  16a  :     0.131937 (c=  0.36323168)
     7a ->  17a  :     0.054769 (c= -0.23402764)
     8a ->  16a  :     0.075324 (c=  0.27445289)
     8a ->  17a  :     0.059484 (c= -0.24389403)

STATE 38:  E=   0.990999 au     26.966 eV   217499.1 cm**-1
     4a ->  14a  :     0.053451 (c= -0.23119405)
     4a ->  15a  :     0.011354 (c= -0.10655461)
     5a ->  14a  :     0.018602 (c=  0.13638888)
     5a ->  17a  :     0.013965 (c= -0.11817235)
     6a ->  15a  :     0.509895 (c=  0.71406944)
     6a ->  16a  :     0.038313 (c= -0.19573660)
     6a ->  17a  :     0.012060 (c=  0.10981990)
     7a ->  15a  :     0.019074 (c=  0.13810921)
     7a ->  16a  :     0.046533 (c=  0.21571424)
     8a ->  15a  :     0.057106 (c=  0.23896961)
     8a ->  16a  :     0.025208 (c=  0.15876957)
     8a ->  17a  :     0.057783 (c= -0.24038017)
     8a ->  18a  :     0.015672 (c= -0.12518717)
     9a ->  12a  :     0.010568 (c=  0.10280214)
     9a ->  18a  :     0.037404 (c=  0.19340064)

STATE 39:  E=   1.022128 au     27.814 eV   224331.2 cm**-1
     3a ->  11a  :     0.135976 (c= -0.36874971)
     4a ->  14a  :     0.067786 (c=  0.26035678)
     5a ->  14a  :     0.010290 (c= -0.10143807)
     5a ->  15a  :     0.024457 (c=  0.15638830)
     5a ->  16a  :     0.049014 (c= -0.22139078)
     6a ->  14a  :     0.011798 (c= -0.10861975)
     6a ->  15a  :     0.021716 (c=  0.14736378)
     6a ->  16a  :     0.020818 (c= -0.14428284)
     6a ->  17a  :     0.073689 (c=  0.27145695)
     7a ->  15a  :     0.066816 (c= -0.25848796)
     7a ->  16a  :     0.077415 (c= -0.27823630)
     7a ->  17a  :     0.226736 (c= -0.47616778)
     8a ->  16a  :     0.032595 (c= -0.18054070)
     9a ->  18a  :     0.098695 (c=  0.31415698)

STATE 40:  E=   1.025658 au     27.910 eV   225105.9 cm**-1
     3a ->  11a  :     0.772573 (c=  0.87896107)
     4a ->  14a  :     0.010108 (c=  0.10053992)
     5a ->  11a  :     0.017268 (c= -0.13140896)
     5a ->  16a  :     0.011279 (c= -0.10620271)
     6a ->  16a  :     0.016271 (c= -0.12755838)
     6a ->  17a  :     0.019299 (c=  0.13892263)
     7a ->  16a  :     0.034445 (c= -0.18559380)
     7a ->  17a  :     0.041500 (c= -0.20371626)
     8a ->  16a  :     0.015843 (c= -0.12586739)

STATE 41:  E=   1.036903 au     28.216 eV   227573.9 cm**-1
     3a ->  12a  :     0.021971 (c=  0.14822519)
     4a ->  13a  :     0.341701 (c=  0.58455195)
     4a ->  15a  :     0.019358 (c=  0.13913446)
     4a ->  16a  :     0.020547 (c= -0.14334369)
     5a ->  13a  :     0.011168 (c= -0.10567751)
     5a ->  15a  :     0.047515 (c= -0.21797828)
     5a ->  16a  :     0.055627 (c=  0.23585436)
     5a ->  17a  :     0.016387 (c=  0.12801162)
     6a ->  15a  :     0.011393 (c=  0.10673891)
     6a ->  16a  :     0.136905 (c=  0.37000697)
     6a ->  17a  :     0.035312 (c=  0.18791571)
     8a ->  16a  :     0.025589 (c=  0.15996539)
     8a ->  17a  :     0.044990 (c=  0.21210894)
     9a ->  18a  :     0.137917 (c=  0.37137176)

STATE 42:  E=   1.044457 au     28.421 eV   229231.9 cm**-1
     4a ->  14a  :     0.192971 (c= -0.43928462)
     4a ->  16a  :     0.036183 (c=  0.19021948)
     4a ->  17a  :     0.013073 (c= -0.11433920)
     5a ->  14a  :     0.019663 (c= -0.14022592)
     6a ->  15a  :     0.089728 (c= -0.29954702)
     6a ->  16a  :     0.096491 (c= -0.31063060)
     6a ->  17a  :     0.012829 (c= -0.11326710)
     7a ->  16a  :     0.012060 (c= -0.10982028)
     7a ->  17a  :     0.066784 (c=  0.25842526)
     8a ->  16a  :     0.018563 (c= -0.13624646)
     8a ->  18a  :     0.016542 (c= -0.12861739)
     9a ->  18a  :     0.363070 (c=  0.60255296)

STATE 43:  E=   1.057354 au     28.772 eV   232062.5 cm**-1
     3a ->  11a  :     0.025713 (c= -0.16035305)
     4a ->  13a  :     0.152259 (c=  0.39020378)
     4a ->  14a  :     0.067873 (c= -0.26052521)
     5a ->  15a  :     0.170082 (c= -0.41240973)
     5a ->  17a  :     0.019584 (c= -0.13994153)
     6a ->  16a  :     0.225900 (c= -0.47528981)
     7a ->  16a  :     0.047192 (c= -0.21723778)
     7a ->  17a  :     0.021445 (c= -0.14644062)
     9a ->  18a  :     0.168492 (c= -0.41047817)

STATE 44:  E=   1.062588 au     28.914 eV   233211.0 cm**-1
     3a ->  12a  :     0.015319 (c= -0.12377112)
     4a ->  13a  :     0.285271 (c= -0.53410759)
     4a ->  14a  :     0.173237 (c= -0.41621701)
     4a ->  17a  :     0.033630 (c= -0.18338446)
     5a ->  15a  :     0.083896 (c= -0.28964765)
     5a ->  16a  :     0.024212 (c=  0.15560270)
     5a ->  17a  :     0.042823 (c=  0.20693824)
     6a ->  14a  :     0.016553 (c= -0.12865981)
     6a ->  16a  :     0.064451 (c=  0.25387164)
     6a ->  17a  :     0.111622 (c=  0.33409873)
     8a ->  17a  :     0.063243 (c=  0.25148092)
     9a ->  18a  :     0.010563 (c= -0.10277404)

STATE 45:  E=   1.097306 au     29.859 eV   240830.8 cm**-1
     4a ->  13a  :     0.039889 (c=  0.19972250)
     4a ->  14a  :     0.097460 (c= -0.31218647)
     4a ->  16a  :     0.151925 (c=  0.38977514)
     5a ->  14a  :     0.034962 (c= -0.18698234)
     5a ->  16a  :     0.361434 (c= -0.60119415)
     6a ->  16a  :     0.146036 (c=  0.38214634)
     6a ->  17a  :     0.015119 (c= -0.12295777)
     7a ->  16a  :     0.014529 (c=  0.12053667)
     7a ->  17a  :     0.035917 (c= -0.18951797)
     9a ->  16a  :     0.010844 (c=  0.10413355)
     9a ->  18a  :     0.019308 (c= -0.13895247)

STATE 46:  E=   1.104935 au     30.067 eV   242505.2 cm**-1
     3a ->  12a  :     0.022394 (c=  0.14964720)
     4a ->  13a  :     0.023848 (c=  0.15442841)
     4a ->  14a  :     0.119331 (c= -0.34544379)
     4a ->  15a  :     0.010204 (c=  0.10101300)
     5a ->  13a  :     0.014690 (c= -0.12120203)
     5a ->  14a  :     0.020949 (c= -0.14473854)
     5a ->  15a  :     0.494578 (c=  0.70326238)
     5a ->  16a  :     0.046518 (c=  0.21568074)
     5a ->  17a  :     0.027381 (c=  0.16547162)
     6a ->  16a  :     0.011562 (c= -0.10752854)
     6a ->  17a  :     0.054206 (c=  0.23282166)
     7a ->  16a  :     0.037607 (c= -0.19392473)
     9a ->  18a  :     0.042031 (c= -0.20501365)

STATE 47:  E=   1.115281 au     30.348 eV   244775.8 cm**-1
     4a ->  14a  :     0.017698 (c= -0.13303454)
     5a ->  16a  :     0.120057 (c=  0.34649252)
     5a ->  17a  :     0.020265 (c=  0.14235432)
     6a ->  15a  :     0.011785 (c=  0.10856004)
     6a ->  17a  :     0.418455 (c= -0.64688072)
     7a ->  15a  :     0.013023 (c=  0.11411716)
     7a ->  16a  :     0.029342 (c= -0.17129453)
     7a ->  17a  :     0.224815 (c= -0.47414681)
     8a ->  17a  :     0.027411 (c= -0.16556360)
     8a ->  18a  :     0.030150 (c=  0.17363789)
     9a ->  17a  :     0.010722 (c= -0.10354825)

STATE 48:  E=   1.144496 au     31.143 eV   251187.8 cm**-1
     3a ->  12a  :     0.186962 (c= -0.43239072)
     4a ->  15a  :     0.134444 (c=  0.36666542)
     4a ->  18a  :     0.012970 (c=  0.11388397)
     6a ->  17a  :     0.028996 (c= -0.17028324)
     6a ->  18a  :     0.013856 (c=  0.11771359)
     7a ->  17a  :     0.011635 (c= -0.10786379)
     8a ->  15a  :     0.010445 (c=  0.10220009)
     8a ->  18a  :     0.477742 (c= -0.69118883)
     9a ->  18a  :     0.043888 (c= -0.20949524)

STATE 49:  E=   1.155483 au     31.442 eV   253599.3 cm**-1
     3a ->  12a  :     0.072076 (c=  0.26847054)
     3a ->  14a  :     0.051807 (c= -0.22761122)
     3a ->  17a  :     0.023004 (c= -0.15166921)
     4a ->  15a  :     0.329009 (c=  0.57359263)
     4a ->  16a  :     0.065860 (c= -0.25663290)
     4a ->  17a  :     0.020953 (c= -0.14475151)
     5a ->  15a  :     0.019362 (c= -0.13914662)
     5a ->  16a  :     0.114998 (c= -0.33911399)
     5a ->  17a  :     0.121071 (c=  0.34795287)
     6a ->  16a  :     0.055285 (c= -0.23512797)
     7a ->  16a  :     0.027298 (c=  0.16522102)
     8a ->  18a  :     0.018100 (c=  0.13453793)

STATE 50:  E=   1.170459 au     31.850 eV   256886.0 cm**-1
     3a ->  12a  :     0.585779 (c=  0.76536171)
     4a ->  13a  :     0.034888 (c= -0.18678241)
     4a ->  15a  :     0.021099 (c= -0.14525614)
     4a ->  16a  :     0.018268 (c=  0.13515774)
     6a ->  18a  :     0.024190 (c=  0.15553066)
     8a ->  18a  :     0.233655 (c= -0.48337911)

STATE 51:  E=   1.191543 au     32.424 eV   261513.5 cm**-1
     3a ->  12a  :     0.014128 (c= -0.11886055)
     3a ->  16a  :     0.012762 (c= -0.11296898)
     4a ->  15a  :     0.329644 (c= -0.57414626)
     4a ->  16a  :     0.187183 (c= -0.43264685)
     4a ->  17a  :     0.012890 (c= -0.11353322)
     5a ->  14a  :     0.023721 (c= -0.15401589)
     5a ->  16a  :     0.042006 (c= -0.20495363)
     5a ->  17a  :     0.261769 (c=  0.51163345)
     7a ->  18a  :     0.013313 (c=  0.11538086)
     8a ->  18a  :     0.030780 (c= -0.17544090)

STATE 52:  E=   1.205411 au     32.801 eV   264557.1 cm**-1
     3a ->  12a  :     0.013191 (c=  0.11485232)
     3a ->  14a  :     0.068037 (c=  0.26083944)
     3a ->  16a  :     0.051969 (c= -0.22796753)
     4a ->  14a  :     0.064336 (c= -0.25364641)
     4a ->  16a  :     0.396469 (c= -0.62965778)
     5a ->  16a  :     0.047284 (c= -0.21744870)
     5a ->  17a  :     0.268269 (c= -0.51794667)
     6a ->  14a  :     0.012115 (c= -0.11006757)

STATE 53:  E=   1.240184 au     33.747 eV   272188.8 cm**-1
     3a ->  15a  :     0.051215 (c= -0.22630703)
     4a ->  14a  :     0.015579 (c= -0.12481616)
     4a ->  17a  :     0.767010 (c=  0.87579098)
     5a ->  15a  :     0.027652 (c= -0.16629032)
     5a ->  17a  :     0.069584 (c=  0.26378806)
     7a ->  18a  :     0.014995 (c= -0.12245230)
     8a ->  18a  :     0.013211 (c=  0.11493888)

STATE 54:  E=   1.256389 au     34.188 eV   275745.5 cm**-1
     3a ->  13a  :     0.028752 (c= -0.16956359)
     4a ->  17a  :     0.012607 (c= -0.11228252)
     5a ->  18a  :     0.033862 (c=  0.18401507)
     6a ->  17a  :     0.010783 (c= -0.10383938)
     6a ->  18a  :     0.375054 (c= -0.61241619)
     7a ->  18a  :     0.423547 (c= -0.65080487)
     8a ->  18a  :     0.041755 (c= -0.20434064)

STATE 55:  E=   1.300303 au     35.383 eV   285383.5 cm**-1
     3a ->  13a  :     0.732704 (c=  0.85598116)
     6a ->  18a  :     0.046001 (c=  0.21447799)
     7a ->  18a  :     0.155728 (c= -0.39462331)
     8a ->  18a  :     0.011056 (c= -0.10514776)

STATE 56:  E=   1.310135 au     35.651 eV   287541.4 cm**-1
     3a ->  13a  :     0.130127 (c= -0.36073114)
     3a ->  14a  :     0.068341 (c= -0.26142168)
     6a ->  18a  :     0.422589 (c=  0.65006868)
     7a ->  18a  :     0.302737 (c= -0.55021583)
     8a ->  18a  :     0.014380 (c=  0.11991506)

STATE 57:  E=   1.356448 au     36.911 eV   297705.9 cm**-1
     3a ->  13a  :     0.025067 (c= -0.15832509)
     3a ->  14a  :     0.612770 (c=  0.78279616)
     3a ->  16a  :     0.018835 (c= -0.13723906)
     3a ->  17a  :     0.010215 (c=  0.10106722)
     4a ->  16a  :     0.014038 (c=  0.11848245)
     5a ->  17a  :     0.042491 (c=  0.20613320)
     5a ->  18a  :     0.083909 (c= -0.28967082)
     6a ->  16a  :     0.013387 (c= -0.11570154)
     6a ->  18a  :     0.012861 (c=  0.11340433)
     7a ->  17a  :     0.013102 (c=  0.11446528)
     7a ->  18a  :     0.043327 (c= -0.20815064)
     9a ->  12a  :     0.010636 (c=  0.10313008)

STATE 58:  E=   1.411040 au     38.396 eV   309687.6 cm**-1
     3a ->  14a  :     0.097321 (c= -0.31196350)
     3a ->  15a  :     0.231357 (c=  0.48099579)
     3a ->  16a  :     0.033438 (c= -0.18285982)
     4a ->  17a  :     0.028652 (c=  0.16926910)
     4a ->  18a  :     0.018358 (c= -0.13549273)
     5a ->  18a  :     0.517511 (c= -0.71938232)
     6a ->  18a  :     0.032800 (c= -0.18110681)

STATE 59:  E=   1.438955 au     39.156 eV   315814.1 cm**-1
     3a ->  13a  :     0.014782 (c=  0.12158060)
     3a ->  15a  :     0.597894 (c= -0.77323582)
     3a ->  16a  :     0.020131 (c=  0.14188545)
     3a ->  18a  :     0.014693 (c= -0.12121277)
     4a ->  17a  :     0.022718 (c= -0.15072485)
     5a ->  18a  :     0.276125 (c= -0.52547558)

STATE 60:  E=   1.448017 au     39.403 eV   317803.0 cm**-1
     3a ->  14a  :     0.020667 (c=  0.14376191)
     3a ->  15a  :     0.057819 (c=  0.24045683)
     3a ->  16a  :     0.832099 (c=  0.91219485)
     3a ->  17a  :     0.013392 (c=  0.11572196)
     4a ->  16a  :     0.033511 (c= -0.18306101)
     4a ->  18a  :     0.010617 (c= -0.10303705)

STATE 61:  E=   1.495169 au     40.686 eV   328151.8 cm**-1
     3a ->  14a  :     0.012048 (c=  0.10976367)
     3a ->  17a  :     0.720350 (c= -0.84873428)
     3a ->  18a  :     0.010721 (c= -0.10354052)
     4a ->  15a  :     0.033266 (c= -0.18239040)
     4a ->  18a  :     0.166523 (c=  0.40807227)
     5a ->  18a  :     0.022665 (c= -0.15054980)

STATE 62:  E=   1.524184 au     41.475 eV   334519.8 cm**-1
     3a ->  14a  :     0.010744 (c=  0.10365491)
     3a ->  15a  :     0.012300 (c= -0.11090449)
     3a ->  17a  :     0.187193 (c= -0.43265779)
     4a ->  18a  :     0.743824 (c= -0.86245225)

STATE 63:  E=   1.752286 au     47.682 eV   384582.4 cm**-1
     3a ->  18a  :     0.944794 (c=  0.97200535)
     4a ->  18a  :     0.014114 (c=  0.11880207)
     5a ->  18a  :     0.010083 (c= -0.10041223)


----------------------
CIS-EXCITATION SPECTRA
----------------------

Center of mass = (  0.0457,  0.6824, -1.3830)
Calculating the Dipole integrals                  ... done
Transforming integrals                            ... done
Calculating the Linear Momentum integrals         ... done
Transforming integrals                            ... done
Calculating angular momentum integrals            ... done
Transforming integrals                            ... done

-----------------------------------------------------------------------------
         ABSORPTION SPECTRUM VIA TRANSITION ELECTRIC DIPOLE MOMENTS
-----------------------------------------------------------------------------
State   Energy  Wavelength   fosc         T2         TX        TY        TZ  
        (cm-1)    (nm)                  (au**2)     (au)      (au)      (au) 
-----------------------------------------------------------------------------
   1   27482.4    363.9   0.017454719   0.20909   0.02074  -0.28611   0.35609
   2   35145.0    284.5   0.007513348   0.07038   0.09491  -0.22952   0.09324
   3   66765.5    149.8   0.004928672   0.02430  -0.01935  -0.11501  -0.10345
   4   72432.9    138.1   0.111374395   0.50620  -0.62681   0.26389  -0.20898
   5   76018.0    131.5   0.117626606   0.50941   0.05322  -0.42524   0.57074
   6   86527.7    115.6   0.048377204   0.18406   0.03380  -0.01886  -0.42727
   7   94116.0    106.3   0.044244183   0.15476   0.32597  -0.10884   0.19147
   8  115372.7     86.7   0.180619359   0.51539   0.55412  -0.44865  -0.08401
   9  118622.8     84.3   0.349435586   0.96978   0.63320  -0.74288  -0.13026
  10  125929.8     79.4   0.492350077   1.28713  -0.91362  -0.64285   0.19791
  11  127587.3     78.4   0.177422929   0.45780   0.50000  -0.38379   0.24599
  12  128580.4     77.8   0.019169629   0.04908  -0.15800  -0.13315   0.07994
  13  132080.7     75.7   0.027781493   0.06925  -0.08637  -0.18992  -0.16037
  14  135512.9     73.8   0.164169829   0.39883  -0.15055  -0.04210   0.61188
  15  144035.8     69.4   0.112802040   0.25782  -0.34882   0.30772  -0.20360
  16  146670.1     68.2   0.243048117   0.54554  -0.68570  -0.21024  -0.17651
  17  148971.1     67.1   0.589342150   1.30239   0.75859  -0.51639  -0.67843
  18  155933.7     64.1   0.600299864   1.26737   0.88916  -0.39837  -0.56398
  19  158540.3     63.1   0.033045996   0.06862  -0.16673  -0.20184   0.00900
  20  163039.8     61.3   0.507287740   1.02432  -0.21130  -0.63462   0.75956
  21  166446.5     60.1   0.773568536   1.53003  -0.13543   0.57320  -1.08772
  22  171393.8     58.3   0.671031353   1.28891  -0.52229   0.51303   0.86772
  23  172646.1     57.9   0.166571947   0.31763   0.32096   0.01603   0.46299
  24  174668.1     57.3   0.410666025   0.77402   0.54691  -0.15511   0.67145
  25  176766.6     56.6   0.192885830   0.35923  -0.14073   0.22676  -0.53666
  26  177312.1     56.4   0.172538758   0.32035   0.26637  -0.43585   0.24378
  27  178589.3     56.0   0.067117609   0.12372  -0.01491   0.23121  -0.26466
  28  179798.1     55.6   0.064632689   0.11834   0.17623  -0.27276   0.11353
  29  185439.0     53.9   0.218126552   0.38724   0.11489   0.12358  -0.59898
  30  186528.9     53.6   0.030489942   0.05381   0.13356  -0.14793   0.11871
  31  193653.8     51.6   0.411067400   0.69882   0.36856  -0.67510   0.32745
  32  197195.3     50.7   0.384557316   0.64201   0.18772   0.71759   0.30305
  33  198849.4     50.3   0.837515029   1.38658  -0.57783  -0.52702  -0.88030
  34  202152.1     49.5   0.345055888   0.56194  -0.64190  -0.06135   0.38227
  35  205897.4     48.6   0.076844633   0.12287  -0.19112   0.27442   0.10505
  36  210973.9     47.4   0.077508283   0.12095   0.14208  -0.27731  -0.15446
  37  215389.5     46.4   0.054820755   0.08379  -0.09710   0.19132   0.19431
  38  217499.1     46.0   0.109310710   0.16546   0.11995   0.38865   0.00420
  39  224331.2     44.6   0.116445079   0.17089   0.00382   0.28611   0.29835
  40  225105.9     44.4   0.016162457   0.02364  -0.03635   0.08937   0.11970
  41  227573.9     43.9   0.027485703   0.03976  -0.04545  -0.16067  -0.10900
  42  229231.9     43.6   0.067218477   0.09654   0.08183  -0.29058  -0.07349
  43  232062.5     43.1   0.073489288   0.10425   0.08632   0.19895  -0.23921
  44  233211.0     42.9   0.038914295   0.05493  -0.05240  -0.21221   0.08458
  45  240830.8     41.5   0.009656312   0.01320   0.08223   0.07516   0.02811
  46  242505.2     41.2   0.042995151   0.05837   0.00443   0.24138  -0.00927
  47  244775.8     40.9   0.049044766   0.06596   0.06571  -0.15681   0.19250
  48  251187.8     39.8   0.044319708   0.05809  -0.06647  -0.04977   0.22625
  49  253599.3     39.4   0.016466765   0.02138  -0.03880   0.14011  -0.01549
  50  256886.0     38.9   0.029565695   0.03789  -0.05223   0.00097   0.18751
  51  261513.5     38.2   0.031593866   0.03977  -0.18365   0.06525  -0.04230
  52  264557.1     37.8   0.028526291   0.03550   0.10905  -0.14613   0.04745
  53  272188.8     36.7   0.007797301   0.00943  -0.02866   0.06739   0.06378
  54  275745.5     36.3   0.074916375   0.08944   0.15543  -0.22574  -0.11969
  55  285383.5     35.0   0.013524685   0.01560   0.01244   0.01588   0.12327
  56  287541.4     34.8   0.023967371   0.02744   0.15464   0.00683  -0.05899
  57  297705.9     33.6   0.222873279   0.24646  -0.30259   0.35210  -0.17587
  58  309687.6     32.3   0.105560450   0.11222  -0.23532  -0.09495   0.21869
  59  315814.1     31.7   0.169352893   0.17654  -0.17110  -0.23093   0.30649
  60  317803.0     31.5   0.005805019   0.00601  -0.02090  -0.06120   0.04279
  61  328151.8     30.5   0.099360715   0.09968   0.00642  -0.16751   0.26755
  62  334519.8     29.9   0.035857245   0.03529   0.05712   0.02032  -0.17780
  63  384582.4     26.0   0.070169724   0.06007   0.11367   0.03425  -0.21442

-----------------------------------------------------------------------------
         ABSORPTION SPECTRUM VIA TRANSITION VELOCITY DIPOLE MOMENTS
-----------------------------------------------------------------------------
State   Energy  Wavelength   fosc         P2         PX        PY        PZ  
        (cm-1)    (nm)                  (au**2)     (au)      (au)      (au) 
-----------------------------------------------------------------------------
   1   27482.4    363.9   0.016456475   0.00309   0.01690  -0.03208   0.04215
   2   35145.0    284.5   0.000843190   0.00020   0.00134   0.00439   0.01347
   3   66765.5    149.8   0.010314035   0.00471   0.05229   0.04028   0.01869
   4   72432.9    138.1   0.022709524   0.01124   0.09562  -0.02763   0.03654
   5   76018.0    131.5   0.005049133   0.00262  -0.00514   0.02427  -0.04481
   6   86527.7    115.6   0.004114132   0.00243   0.02327   0.01889   0.03917
   7   94116.0    106.3   0.006144748   0.00395  -0.04268   0.01746  -0.04273
   8  115372.7     86.7   0.043759216   0.03450  -0.15115   0.10624   0.01928
   9  118622.8     84.3   0.051361944   0.04164  -0.11655   0.15792   0.05585
  10  125929.8     79.4   0.124348134   0.10702   0.25163   0.20899  -0.00553
  11  127587.3     78.4   0.029362362   0.02560  -0.10773   0.08054  -0.08667
  12  128580.4     77.8   0.007747092   0.00681  -0.00023   0.08241   0.00410
  13  132080.7     75.7   0.014907943   0.01346   0.04356   0.08587  -0.06471
  14  135512.9     73.8   0.036542339   0.03384   0.00839  -0.01607  -0.18307
  15  144035.8     69.4   0.030226159   0.02976   0.11856  -0.11422   0.05149
  16  146670.1     68.2   0.085047152   0.08525   0.28237   0.05149   0.05356
  17  148971.1     67.1   0.255593010   0.26023  -0.34759   0.23409   0.29088
  18  155933.7     64.1   0.302498756   0.32238  -0.43796   0.24780   0.26301
  19  158540.3     63.1   0.006503084   0.00705   0.07747   0.03149   0.00727
  20  163039.8     61.3   0.128627232   0.14333   0.01649   0.24817  -0.28542
  21  166446.5     60.1   0.285352552   0.32461   0.02917  -0.28014   0.49526
  22  171393.8     58.3   0.325921032   0.38178   0.26332  -0.26138  -0.49409
  23  172646.1     57.9   0.052110958   0.06149  -0.13699  -0.00485  -0.20664
  24  174668.1     57.3   0.206148503   0.24609  -0.30794   0.01381  -0.38869
  25  176766.6     56.6   0.063365195   0.07655   0.01769  -0.07933   0.26447
  26  177312.1     56.4   0.061928217   0.07505  -0.14517   0.18755  -0.13711
  27  178589.3     56.0   0.013787707   0.01683   0.07210  -0.10633   0.01801
  28  179798.1     55.6   0.017423821   0.02141  -0.03847   0.10765  -0.09134
  29  185439.0     53.9   0.102850996   0.13035  -0.03626  -0.09712   0.34584
  30  186528.9     53.6   0.006069390   0.00774  -0.08343   0.00713  -0.02693
  31  193653.8     51.6   0.215292773   0.28495  -0.21734   0.42353  -0.24151
  32  197195.3     50.7   0.165494393   0.22304  -0.13446  -0.39338  -0.22409
  33  198849.4     50.3   0.293803526   0.39929   0.29579   0.28666   0.47919
  34  202152.1     49.5   0.127958464   0.17679   0.32713   0.01266  -0.26385
  35  205897.4     48.6   0.045485269   0.06401   0.14208  -0.14623  -0.14979
  36  210973.9     47.4   0.035583360   0.05131  -0.11141   0.18209   0.07576
  37  215389.5     46.4   0.018339249   0.02700   0.06846  -0.07754  -0.12766
  38  217499.1     46.0   0.026055372   0.03873  -0.08814  -0.17576  -0.00845
  39  224331.2     44.6   0.032370503   0.04963   0.00743  -0.17028  -0.14346
  40  225105.9     44.4   0.003121691   0.00480   0.00618  -0.04049  -0.05590
  41  227573.9     43.9   0.008133048   0.01265   0.03006   0.08837   0.06275
  42  229231.9     43.6   0.014319089   0.02243  -0.05667   0.13291   0.03945
  43  232062.5     43.1   0.019687536   0.03123  -0.05401  -0.07393   0.15113
  44  233211.0     42.9   0.009468523   0.01509   0.05201   0.10554  -0.03533
  45  240830.8     41.5   0.003838673   0.00632  -0.05119  -0.05743  -0.01998
  46  242505.2     41.2   0.015908987   0.02637   0.03724  -0.12076  -0.10197
  47  244775.8     40.9   0.007368747   0.01233   0.01801   0.04689  -0.09902
  48  251187.8     39.8   0.013203638   0.02267   0.04399   0.02471  -0.14185
  49  253599.3     39.4   0.002517333   0.00436  -0.02749   0.03849  -0.04611
  50  256886.0     38.9   0.010288675   0.01806   0.06881  -0.03534  -0.10991
  51  261513.5     38.2   0.013266797   0.02371   0.13385  -0.03767   0.06615
  52  264557.1     37.8   0.002630700   0.00476   0.02996  -0.00986   0.06133
  53  272188.8     36.7   0.005511275   0.01025   0.02096  -0.05832  -0.08008
  54  275745.5     36.3   0.027247088   0.05135  -0.13870   0.12997   0.12337
  55  285383.5     35.0   0.010859720   0.02118   0.04534  -0.02396  -0.13620
  56  287541.4     34.8   0.008772198   0.01724  -0.11306  -0.00221   0.06671
  57  297705.9     33.6   0.041516796   0.08447   0.18745  -0.20968   0.07329
  58  309687.6     32.3   0.020564231   0.04353   0.15469   0.04142  -0.13372
  59  315814.1     31.7   0.040000421   0.08634   0.14924   0.10408  -0.23072
  60  317803.0     31.5   0.001761619   0.00383   0.00133   0.03150  -0.05322
  61  328151.8     30.5   0.021170852   0.04748   0.00161   0.11452  -0.18537
  62  334519.8     29.9   0.008090012   0.01850  -0.05255  -0.00138   0.12543
  63  384582.4     26.0   0.026164639   0.06877  -0.12674  -0.01336   0.22920

-------------------------------------------------------------------
                             CD SPECTRUM
-------------------------------------------------------------------
State   Energy Wavelength       R         MX        MY        MZ   
        (cm-1)   (nm)       (1e40*cgs)   (au)      (au)      (au)  
-------------------------------------------------------------------
   1   27482.4    363.9    -88.56094  -0.04634   0.13448  -0.41678
   2   35145.0    284.5    -12.35844   0.00176   0.32178   0.50916
   3   66765.5    149.8     14.45593   0.38850   0.03872  -0.41213
   4   72432.9    138.1    209.05890  -0.42305   0.47269  -0.25612
   5   76018.0    131.5      0.42486  -0.13589   0.06146   0.06004
   6   86527.7    115.6     23.08029  -0.26096   0.37507  -0.15178
   7   94116.0    106.3    -17.22645  -0.06013  -0.13237  -0.16372
   8  115372.7     86.7    -96.09431  -0.40682   0.01873  -0.35717
   9  118622.8     84.3     76.23472   0.05328  -0.16170  -0.06019
  10  125929.8     79.4    -135.00060   0.14545   0.22965  -0.02948
  11  127587.3     78.4    -34.33730  -0.30742  -0.20328   0.01162
  12  128580.4     77.8     32.95935  -0.19915  -0.29763  -0.01479
  13  132080.7     75.7     -6.47148   0.00179   0.12278  -0.06077
  14  135512.9     73.8    -11.91224   0.11722   0.05767  -0.00849
  15  144035.8     69.4    -62.89334   0.20348  -0.12596   0.11623
  16  146670.1     68.2     53.06799  -0.01370  -0.39511  -0.11389
  17  148971.1     67.1    -48.04111   0.30918   0.41060   0.18338
  18  155933.7     64.1     24.67168  -0.04535  -0.13703  -0.06749
  19  158540.3     63.1      3.89097  -0.10986   0.04511  -0.10655
  20  163039.8     61.3     55.77437  -0.19307  -0.16163  -0.03300
  21  166446.5     60.1    -21.66866   0.03540   0.01669   0.04664
  22  171393.8     58.3     35.75293  -0.09221   0.04041   0.00801
  23  172646.1     57.9     16.13497  -0.04251   0.10034   0.09991
  24  174668.1     57.3    -23.84892   0.01334   0.08349  -0.06692
  25  176766.6     56.6     25.15132  -0.01506   0.02611  -0.08443
  26  177312.1     56.4      1.87084   0.20315   0.18280   0.12112
  27  178589.3     56.0    -13.83418  -0.10652  -0.21310  -0.06929
  28  179798.1     55.6      6.83793  -0.10084  -0.10609   0.02940
  29  185439.0     53.9     -4.79605   0.01812  -0.02619   0.01506
  30  186528.9     53.6     -0.59780   0.28629   0.07066  -0.24476
  31  193653.8     51.6     12.20741  -0.01511   0.00059   0.09730
  32  197195.3     50.7     19.47772   0.33272   0.14482  -0.41267
  33  198849.4     50.3    -60.03968  -0.17968  -0.06831   0.30350
  34  202152.1     49.5     48.69171  -0.10019  -0.08661   0.08804
  35  205897.4     48.6     -6.02788  -0.00668  -0.02068  -0.07984
  36  210973.9     47.4    -12.16710   0.15519   0.14886   0.04258
  37  215389.5     46.4    -16.00111   0.08409   0.01121  -0.14368
  38  217499.1     46.0     -0.48007   0.06418  -0.02163  -0.07388
  39  224331.2     44.6    -13.24484   0.06843  -0.01608  -0.07962
  40  225105.9     44.4     -2.02904   0.00588   0.04381  -0.06687
  41  227573.9     43.9     -1.87237   0.03572  -0.02451   0.05768
  42  229231.9     43.6      8.24297   0.04230  -0.06229   0.05547
  43  232062.5     43.1     10.51014   0.03485   0.05419  -0.03555
  44  233211.0     42.9     -4.02397   0.03744   0.03878   0.01958
  45  240830.8     41.5     -0.68778  -0.01299   0.00912  -0.03826
  46  242505.2     41.2      5.56512  -0.10671   0.05126   0.01043
  47  244775.8     40.9      5.44461  -0.01319  -0.03717   0.03422
  48  251187.8     39.8     -0.93375  -0.14325  -0.03700  -0.05898
  49  253599.3     39.4      0.49955  -0.10664  -0.01410   0.07119
  50  256886.0     38.9     -3.15911   0.07446   0.07845  -0.01540
  51  261513.5     38.2      5.58677  -0.09421  -0.06575   0.02747
  52  264557.1     37.8     -1.53410  -0.00277   0.03413   0.04291
  53  272188.8     36.7     -0.36812  -0.05252  -0.01418  -0.02086
  54  275745.5     36.3      1.09278  -0.01080  -0.00758  -0.01909
  55  285383.5     35.0     -1.86369  -0.00778  -0.04923  -0.02494
  56  287541.4     34.8      4.64846   0.08402   0.03157   0.05678
  57  297705.9     33.6     -2.31728  -0.01842  -0.04324  -0.02692
  58  309687.6     32.3      1.79375   0.01896  -0.10693  -0.00863
  59  315814.1     31.7     -1.34483   0.02755  -0.03568  -0.02081
  60  317803.0     31.5     -1.37015   0.07051  -0.00204  -0.03639
  61  328151.8     30.5      3.10817  -0.04009   0.00156   0.02658
  62  334519.8     29.9      0.52456  -0.00918  -0.05968  -0.01603
  63  384582.4     26.0     -0.45504   0.04403   0.04236   0.03461

Total run time:        0.400 sec

           *** ORCA-CIS/TD-DFT FINISHED WITHOUT ERROR ***

-----------------------
CIS/TD-DFT TOTAL ENERGY
-----------------------

    E(SCF)  =   -101.118440418 Eh
    DE(CIS) =      0.125218837 Eh (Root  1)
    ----------------------------- ---------
    E(tot)  =   -100.993221581 Eh


-------------------------   --------------------
FINAL SINGLE POINT ENERGY      -100.993221580612
-------------------------   --------------------


                            ***************************************
                            *     ORCA property calculations      *
                            ***************************************

                                    ---------------------
                                    Active property flags
                                    ---------------------
   (+) Dipole Moment


------------------------------------------------------------------------------
                       ORCA ELECTRIC PROPERTIES CALCULATION
------------------------------------------------------------------------------

Dipole Moment Calculation                       ... on
Quadrupole Moment Calculation                   ... off
Polarizability Calculation                      ... off
GBWName                                         ... orca_singlet_tda.gbw
Electron density file                           ... orca_singlet_tda.scfp.tmp
The origin for moment calculation is the CENTER OF MASS  = ( 0.045689,  0.682354 -1.382979)

-------------
DIPOLE MOMENT
-------------
                                X             Y             Z
Electronic contribution:      0.99725      -1.16598       0.21107
Nuclear contribution   :     -1.07799       1.14340      -0.03516
                        -----------------------------------------
Total Dipole Moment    :     -0.08073      -0.02257       0.17591
                        -----------------------------------------
Magnitude (a.u.)       :      0.19486
Magnitude (Debye)      :      0.49530


Timings for individual modules:

Sum of individual times         ...        2.604 sec (=   0.043 min)
GTO integral calculation        ...        0.250 sec (=   0.004 min)   9.6 %
SCF iterations                  ...        1.912 sec (=   0.032 min)  73.4 %
CIS module                      ...        0.443 sec (=   0.007 min)  17.0 %
                             ****ORCA TERMINATED NORMALLY****
TOTAL RUN TIME: 0 days 0 hours 0 minutes 2 seconds 752 msec
