[Molden Format]
[GTO]
    1 0
 s   6 1.00
      16.1195750    0.1543289700
       2.9362007    0.5353281400
       0.7946505    0.4446345400
       0.6362897    0.0000000000
       0.1478601    0.0000000000
       0.0480887    0.0000000000
 s   6 1.00
      16.1195750    0.0000000000
       2.9362007    0.0000000000
       0.7946505    0.0000000000
       0.6362897   -0.0999672300
       0.1478601    0.3995128300
       0.0480887    0.7001154700
 p   3 1.00
       0.6362897    0.1559162700
       0.1478601    0.6076837200
       0.0480887    0.3919573900

    2 0
 s   3 1.00
       3.4252509    0.1543289700
       0.6239137    0.5353281400
       0.1688554    0.4446345400

[SCFCONV]
scf-first  1  THROUGH   8
       -7.6070391970
       -7.6135153311
       -7.6136651921
       -7.6136673194
       -7.6136673512
       -7.6136673513
       -7.6136673513
       -7.6136673513
[TITLE]
*** Dalton interface to Molden, wave function type : HF            19Feb17   21:
[Atoms] AU
Li         1     3         0.0000000000         0.0000000000         0.000000000
H          2     1         0.0000000000         0.0000000000         3.013924196
[5D7F]
[9G]
[MO]
Sym= A
Ene=   -2.7270
Spin= Alpha
Occup=  2.0000
    1       -0.992369
    2       -0.029840
    5       -0.000517
    6       -0.000198
Sym= A
Ene=   -0.4844
Spin= Alpha
Occup=  1.0000
    1        0.109993
    2       -0.167213
    5       -0.192759
    6       -0.820100
Sym= A
Ene=   -0.1488
Spin= Alpha
Occup=  0.0000
    1        0.233550
    2       -0.907278
    5        0.482115
    6        0.132901
Sym= A
Ene=   -0.0968
Spin= Alpha
Occup=  0.0000
    3        0.997100
    4       -0.076100
Sym= A
Ene=   -0.0968
Spin= Alpha
Occup=  0.0000
    3        0.076100
    4        0.997100
Sym= A
Ene=    0.1830
Spin= Alpha
Occup=  0.0000
    1       -0.108933
    2        0.701374
    5        1.089670
    6       -1.019977
[End of Molden output from Dalton]
