 argument  1 = cation_nwchem_singlet_tda_velocity.in



============================== echo of input deck ==============================
echo

geometry units angstrom noautoz nocenter
symmetry c1
H 0.000 0.000 0.917
F 0.000 0.000 0.000
end

charge 1

basis
  * library sto-3g
end

dft
  mult 2
  xc hfexch
  direct
  maxiter 1000
  convergence energy 1.0e-10
end

tddft
  nroots 100
  singlet
  notriplet
  cdspectrum
  velocity
  tda
end

task tddft energy
================================================================================


                                         
                                         


              Northwest Computational Chemistry Package (NWChem) 6.6
              ------------------------------------------------------


                    Environmental Molecular Sciences Laboratory
                       Pacific Northwest National Laboratory
                                Richland, WA 99352

                              Copyright (c) 1994-2015
                       Pacific Northwest National Laboratory
                            Battelle Memorial Institute

             NWChem is an open-source computational chemistry package
                        distributed under the terms of the
                      Educational Community License (ECL) 2.0
             A copy of the license is included with this distribution
                              in the LICENSE.TXT file

                                  ACKNOWLEDGMENT
                                  --------------

            This software and its documentation were developed at the
            EMSL at Pacific Northwest National Laboratory, a multiprogram
            national laboratory, operated for the U.S. Department of Energy
            by Battelle under Contract Number DE-AC05-76RL01830. Support
            for this work was provided by the Department of Energy Office
            of Biological and Environmental Research, Office of Basic
            Energy Sciences, and the Office of Advanced Scientific Computing.


           Job information
           ---------------

    hostname        = copper
    program         = nwchem
    date            = Thu Apr  6 10:56:26 2017

    compiled        = Sun_Feb_14_13:23:17_2016
    source          = /build/nwchem-XLLp2O/nwchem-6.6+r27746
    nwchem branch   = 6.6
    nwchem revision = 27746
    ga revision     = 10594
    input           = cation_nwchem_singlet_tda_velocity.in
    prefix          = cation_nwchem_singlet_tda_velocity.
    data base       = ./cation_nwchem_singlet_tda_velocity.db
    status          = startup
    nproc           =        1
    time left       =     -1s



           Memory information
           ------------------

    heap     =   13107198 doubles =    100.0 Mbytes
    stack    =   13107195 doubles =    100.0 Mbytes
    global   =   26214400 doubles =    200.0 Mbytes (distinct from heap & stack)
    total    =   52428793 doubles =    400.0 Mbytes
    verify   = yes
    hardfail = no 


           Directory information
           ---------------------

  0 permanent = .
  0 scratch   = .




                                NWChem Input Module
                                -------------------



 Scaling coordinates for geometry "geometry" by  1.889725989
 (inverse scale =  0.529177249)

 Turning off AUTOSYM since
 SYMMETRY directive was detected!



                             Geometry "geometry" -> ""
                             -------------------------

 Output coordinates in angstroms (scale by  1.889725989 to convert to a.u.)

  No.       Tag          Charge          X              Y              Z
 ---- ---------------- ---------- -------------- -------------- --------------
    1 H                    1.0000     0.00000000     0.00000000     0.91700000
    2 F                    9.0000     0.00000000     0.00000000     0.00000000

      Atomic Mass 
      ----------- 

      H                  1.007825
      F                 18.998400


 Effective nuclear repulsion energy (a.u.)       5.1936698375

            Nuclear Dipole moment (a.u.) 
            ----------------------------
        X                 Y               Z
 ---------------- ---------------- ----------------
     0.0000000000     0.0000000000     1.7328787315


            XYZ format geometry
            -------------------
     2
 geometry
 H                     0.00000000     0.00000000     0.91700000
 F                     0.00000000     0.00000000     0.00000000

 ==============================================================================
                                internuclear distances
 ------------------------------------------------------------------------------
       center one      |      center two      | atomic units |  angstroms
 ------------------------------------------------------------------------------
    2 F                |   1 H                |     1.73288  |     0.91700
 ------------------------------------------------------------------------------
                         number of included internuclear distances:          1
 ==============================================================================





 Summary of "ao basis" -> "" (cartesian)
 ------------------------------------------------------------------------------
       Tag                 Description            Shells   Functions and Types
 ---------------- ------------------------------  ------  ---------------------
 *                           sto-3g                   on all atoms 


  xc_inp: hfexch multiplicative factor not found.

                                 NWChem DFT Module
                                 -----------------


                      Basis "ao basis" -> "ao basis" (cartesian)
                      -----
  H (Hydrogen)
  ------------
            Exponent  Coefficients 
       -------------- ---------------------------------------------------------
  1 S  3.42525091E+00  0.154329
  1 S  6.23913730E-01  0.535328
  1 S  1.68855400E-01  0.444635

  F (Fluorine)
  ------------
            Exponent  Coefficients 
       -------------- ---------------------------------------------------------
  1 S  1.66679130E+02  0.154329
  1 S  3.03608120E+01  0.535328
  1 S  8.21682070E+00  0.444635

  2 S  6.46480320E+00 -0.099967
  2 S  1.50228120E+00  0.399513
  2 S  4.88588500E-01  0.700115

  3 P  6.46480320E+00  0.155916
  3 P  1.50228120E+00  0.607684
  3 P  4.88588500E-01  0.391957



 Summary of "ao basis" -> "ao basis" (cartesian)
 ------------------------------------------------------------------------------
       Tag                 Description            Shells   Functions and Types
 ---------------- ------------------------------  ------  ---------------------
 H                           sto-3g                  1        1   1s
 F                           sto-3g                  3        5   2s1p




 Summary of "ao basis" -> "ao basis" (cartesian)
 ------------------------------------------------------------------------------
       Tag                 Description            Shells   Functions and Types
 ---------------- ------------------------------  ------  ---------------------
 H                           sto-3g                  1        1   1s
 F                           sto-3g                  3        5   2s1p


  Caching 1-el integrals 
  itol2e modified to match energy
  convergence criterion.
  tol_rho modified to match energy
  convergence criterion.

            General Information
            -------------------
          SCF calculation type: DFT
          Wavefunction type:  spin polarized.
          No. of atoms     :     2
          No. of electrons :     9
           Alpha electrons :     5
            Beta electrons :     4
          Charge           :     1
          Spin multiplicity:     2
          Use of symmetry is: off; symmetry adaption is: off
          Maximum number of iterations: ***
          This is a Direct SCF calculation.
          AO basis - number of functions:     6
                     number of shells:     4
          Convergence on energy requested: 1.00D-10
          Convergence on density requested: 1.00D-05
          Convergence on gradient requested: 5.00D-04

              XC Information
              --------------
                     Hartree-Fock (Exact) Exchange  1.000          

          Convergence Information
          -----------------------
          Convergence aids based upon iterative change in 
          total energy or number of iterations. 
          Levelshifting, if invoked, occurs when the 
          HOMO/LUMO gap drops below (HL_TOL): 1.00D-02
          DIIS, if invoked, will attempt to extrapolate 
          using up to (NFOCK): 10 stored Fock matrices.

                    Damping( 0%)  Levelshifting(0.5)       DIIS
                  --------------- ------------------- ---------------
          dE  on:    start            ASAP                start   
          dE off:    2 iters        *** iters           *** iters 


      Screening Tolerance Information
      -------------------------------
          Density screening/tol_rho: 1.00D-13
          AO Gaussian exp screening on grid/accAOfunc:  23
          CD Gaussian exp screening on grid/accCDfunc:  20
          XC Gaussian exp screening on grid/accXCfunc:  20
          Schwarz screening/accCoul: 1.00D-11


      Superposition of Atomic Density Guess
      -------------------------------------

 Sum of atomic energies:         -98.46802305

 Renormalizing density from      10.00 to      9

      Non-variational initial energy
      ------------------------------

 Total energy =     -92.116805
 1-e energy   =    -134.325814
 2-e energy   =      37.015340
 HOMO         =      -1.238251
 LUMO         =      -0.085024

   Time after variat. SCF:      0.1
   Time prior to 1st pass:      0.1

           Memory utilization after 1st SCF pass: 
           Heap Space remaining (MW):       13.11            13106438
          Stack Space remaining (MW):       13.11            13107020

   convergence    iter        energy       DeltaE   RMS-Dens  Diis-err    time
 ---------------- ----- ----------------- --------- --------- ---------  ------
 d= 0,ls=0.0,diis     1    -98.1527655708 -1.03D+02  2.66D-02  2.44D-02     0.1
                                                     2.96D-02  3.21D-02
 d= 0,ls=0.0,diis     2    -98.1762476139 -2.35D-02  4.98D-03  5.69D-04     0.1
                                                     7.38D-03  1.35D-03
 d= 0,ls=0.0,diis     3    -98.1771360166 -8.88D-04  9.34D-04  3.53D-05     0.1
                                                     1.15D-03  2.74D-05
 d= 0,ls=0.0,diis     4    -98.1771720344 -3.60D-05  7.67D-04  6.24D-06     0.1
                                                     8.37D-04  6.30D-06
 d= 0,ls=0.0,diis     5    -98.1771825845 -1.06D-05  2.19D-04  3.26D-07     0.1
                                                     1.76D-04  2.00D-07
 d= 0,ls=0.0,diis     6    -98.1771830231 -4.39D-07  1.24D-06  6.35D-11     0.1
                                                     3.21D-06  1.37D-10
 d= 0,ls=0.0,diis     7    -98.1771830231 -8.47D-11  5.66D-07  5.34D-12     0.1
                                                     2.08D-07  3.36D-12


         Total DFT energy =      -98.177183023145
      One electron energy =     -142.340357352503
           Coulomb energy =       48.971392213808
    Exchange-Corr. energy =      -10.001887721960
 Nuclear repulsion energy =        5.193669837511

 Numeric. integr. density =        0.000000000000

     Total iterative time =      0.0s



                    DFT Final Alpha Molecular Orbital Analysis
                    ------------------------------------------

 Vector    1  Occ=1.000000D+00  E=-2.690402D+01
              MO Center=  4.3D-18,  2.0D-17,  1.4D-04, r^2= 1.2D-02
   Bfn.  Coefficient  Atom+Function         Bfn.  Coefficient  Atom+Function  
  ----- ------------  ---------------      ----- ------------  ---------------
     2      0.994727  2 F  s          

 Vector    2  Occ=1.000000D+00  E=-2.263849D+00
              MO Center= -3.4D-16,  1.6D-16,  1.1D-01, r^2= 3.5D-01
   Bfn.  Coefficient  Atom+Function         Bfn.  Coefficient  Atom+Function  
  ----- ------------  ---------------      ----- ------------  ---------------
     3      0.978453  2 F  s                  2     -0.255533  2 F  s          

 Vector    3  Occ=1.000000D+00  E=-1.329913D+00
              MO Center= -4.7D-17,  1.7D-15,  3.2D-29, r^2= 3.2D-01
   Bfn.  Coefficient  Atom+Function         Bfn.  Coefficient  Atom+Function  
  ----- ------------  ---------------      ----- ------------  ---------------
     5      0.999606  2 F  py         

 Vector    4  Occ=1.000000D+00  E=-1.316526D+00
              MO Center= -2.1D-16, -1.8D-15,  5.2D-02, r^2= 4.9D-01
   Bfn.  Coefficient  Atom+Function         Bfn.  Coefficient  Atom+Function  
  ----- ------------  ---------------      ----- ------------  ---------------
     6      0.834598  2 F  pz                 1      0.325890  1 H  s          
     3     -0.326386  2 F  s          

 Vector    5  Occ=1.000000D+00  E=-1.222372D+00
              MO Center=  5.7D-16,  1.6D-17, -1.0D-30, r^2= 3.2D-01
   Bfn.  Coefficient  Atom+Function         Bfn.  Coefficient  Atom+Function  
  ----- ------------  ---------------      ----- ------------  ---------------
     4      0.999606  2 F  px         

 Vector    6  Occ=0.000000D+00  E= 1.685135D-02
              MO Center= -4.9D-19,  1.5D-18,  8.4D-01, r^2= 6.9D-01
   Bfn.  Coefficient  Atom+Function         Bfn.  Coefficient  Atom+Function  
  ----- ------------  ---------------      ----- ------------  ---------------
     1      1.171997  1 H  s                  6     -0.683499  2 F  pz         
     3     -0.560898  2 F  s          


                     DFT Final Beta Molecular Orbital Analysis
                     -----------------------------------------

 Vector    1  Occ=1.000000D+00  E=-2.687237D+01
              MO Center= -4.4D-17,  1.1D-17,  1.3D-04, r^2= 1.2D-02
   Bfn.  Coefficient  Atom+Function         Bfn.  Coefficient  Atom+Function  
  ----- ------------  ---------------      ----- ------------  ---------------
     2      0.995203  2 F  s          

 Vector    2  Occ=1.000000D+00  E=-2.069500D+00
              MO Center=  1.2D-17, -4.4D-16,  1.4D-01, r^2= 3.7D-01
   Bfn.  Coefficient  Atom+Function         Bfn.  Coefficient  Atom+Function  
  ----- ------------  ---------------      ----- ------------  ---------------
     3      0.947882  2 F  s                  2     -0.248734  2 F  s          

 Vector    3  Occ=1.000000D+00  E=-1.257477D+00
              MO Center= -6.5D-16,  3.2D-16,  5.1D-02, r^2= 5.1D-01
   Bfn.  Coefficient  Atom+Function         Bfn.  Coefficient  Atom+Function  
  ----- ------------  ---------------      ----- ------------  ---------------
     6      0.809343  2 F  pz                 3     -0.377936  2 F  s          
     1      0.356152  1 H  s          

 Vector    4  Occ=1.000000D+00  E=-1.165307D+00
              MO Center=  8.4D-16,  2.4D-17, -1.8D-30, r^2= 3.2D-01
   Bfn.  Coefficient  Atom+Function         Bfn.  Coefficient  Atom+Function  
  ----- ------------  ---------------      ----- ------------  ---------------
     4      0.999606  2 F  px         

 Vector    5  Occ=0.000000D+00  E=-3.291043D-01
              MO Center=  3.5D-18, -1.2D-16,  7.2D-30, r^2= 3.2D-01
   Bfn.  Coefficient  Atom+Function         Bfn.  Coefficient  Atom+Function  
  ----- ------------  ---------------      ----- ------------  ---------------
     5      0.999606  2 F  py         

 Vector    6  Occ=0.000000D+00  E= 3.965040D-02
              MO Center=  2.9D-18,  1.8D-17,  8.2D-01, r^2= 6.9D-01
   Bfn.  Coefficient  Atom+Function         Bfn.  Coefficient  Atom+Function  
  ----- ------------  ---------------      ----- ------------  ---------------
     1      1.158897  1 H  s                  6     -0.711694  2 F  pz         
     3     -0.580753  2 F  s          


   alpha - beta orbital overlaps 
   ----------------------------- 


   alpha      1      2      3      4      5      6
    beta      1      2      5      3      4      6
 overlap   1.000  0.999  1.000  0.999  1.000  0.999

     --------------------------
     Expectation value of S2:  
     --------------------------
      <S2> =      0.7518 (Exact =     0.7500)


 center of mass
 --------------
 x =   0.00000000 y =   0.00000000 z =   0.08729475

 moments of inertia (a.u.)
 ------------------
           2.873911224297           0.000000000000           0.000000000000
           0.000000000000           2.873911224297           0.000000000000
           0.000000000000           0.000000000000           0.000000000000

     Multipole analysis of the density
     ---------------------------------

     L   x y z        total         alpha         beta         nuclear
     -   - - -        -----         -----         ----         -------
     0   0 0 0      1.000000     -5.000000     -4.000000     10.000000

     1   1 0 0     -0.000000      0.000000     -0.000000      0.000000
     1   0 1 0      0.000000     -0.000000      0.000000      0.000000
     1   0 0 1      1.066044     -0.306786     -0.360049      1.732879

     2   2 0 0     -3.069874     -1.642748     -1.427126      0.000000
     2   1 1 0     -0.012973     -0.000000     -0.012973      0.000000
     2   1 0 1      0.000000      0.000000      0.000000      0.000000
     2   0 2 0     -2.608004     -1.642748     -0.965256      0.000000
     2   0 1 1      0.000000      0.000000      0.000000      0.000000
     2   0 0 2     -1.103964     -2.108865     -1.997968      3.002869

                                NWChem TDDFT Module
                                -------------------


            General Information
            -------------------
           No. of orbitals :    12
            Alpha orbitals :     6
             Beta orbitals :     6
        Alpha frozen cores :     0
         Beta frozen cores :     0
     Alpha frozen virtuals :     0
      Beta frozen virtuals :     0
         Spin multiplicity :     2
    Number of AO functions :     6
        Use of symmetry is : off
      Symmetry adaption is : off
         Schwarz screening : 0.10D-10

              XC Information
              --------------
              Hartree-Fock (Exact) Exchange   1.00          

             TDDFT Information
             -----------------
          Calculation type : CIS               
         Wavefunction type : Unrestricted
          No. of electrons :     9
           Alpha electrons :     5
            Beta electrons :     4
              No. of roots :   100
          Max subspacesize :  ****
            Max iterations :   100
               Target root :     1
           Target symmetry : none
      Symmetry restriction : off
                 Algorithm : Optimal
        Davidson threshold : 0.10D-03

            Memory Information
            ------------------
          Available GA space size is          26214328 doubles
          Available MA space size is          26213700 doubles
          Length of a trial vector is            5       8
          Algorithm : Incore multiple tensor contraction
          Estimated peak GA usage is           1052716 doubles
          Estimated peak MA usage is           5010000 doubles

   13 smallest eigenvalue differences (eV) 
--------------------------------------------------------
  No. Spin  Occ  Vir  Irrep   E(Occ)    E(Vir)   E(Diff)
--------------------------------------------------------
    1    2    4    5 a        -1.165    -0.329    22.754
    2    2    3    5 a        -1.257    -0.329    25.262
    3    2    4    6 a        -1.165     0.040    32.789
    4    1    5    6 a        -1.222     0.017    33.721
    5    2    3    6 a        -1.257     0.040    35.297
    6    1    4    6 a        -1.317     0.017    36.283
    7    1    3    6 a        -1.330     0.017    36.647
    8    2    2    5 a        -2.069    -0.329    47.359
    9    2    2    6 a        -2.069     0.040    57.393
   10    1    2    6 a        -2.264     0.017    62.061
   11    2    1    5 a       -26.872    -0.329   722.279
   12    2    1    6 a       -26.872     0.040   732.314
   13    1    1    6 a       -26.904     0.017   732.555
--------------------------------------------------------
          Number of roots decreased from       100 to   13

  Entering Davidson iterations
  Unrestricted

  Iter   NTrls   NConv    DeltaV     DeltaE      Time   
  ----  ------  ------  ---------  ---------  --------- 
    1     13      13     0.33E-13   0.10+100        0.0
  ----  ------  ------  ---------  ---------  --------- 
  Convergence criterion met

  Ground state a         -98.177183023145 a.u.
  <S2> =   0.7518

  ----------------------------------------------------------------------------
  Root   1         a             -0.000000000 a.u.               -0.0000 eV 
  <S2> =   0.7518
  ----------------------------------------------------------------------------
     Transition Moments    X  0.00000   Y -0.00000   Z  0.00000
     Transition Moments   XX  0.01297  XY -0.23093  XZ -0.00000
     Transition Moments   YY -0.01297  YZ  0.00000  ZZ -0.00000
     Dipole Oscillator Strength                        -0.00000

     Electric Transition Dipole:
            X    0.0000000   Y  -0.0000000   Z   0.0000000
     Magnetic Transition Dipole (Length):
            X   -0.0000000   Y   0.0000000   Z  -0.5000000
     Magnetic Transition Dipole * 1/c :
            X   -0.0000000   Y   0.0000000   Z  -0.0036487
     Rotatory Strength (1E-40 esu**2cm**2):           -0.0000000
 Velocity: E <= 1e-6. skipping this excitation

     Occ.    4 beta  a   ---  Virt.    5 beta  a      1.00000
  ----------------------------------------------------------------------------
  Root   2         a              0.166576688 a.u.                4.5328 eV 
  <S2> =   0.7510
  ----------------------------------------------------------------------------
     Transition Moments    X -0.00341   Y  0.12150   Z -0.00000
     Transition Moments   XX -0.00000  XY -0.00000  XZ  0.00661
     Transition Moments   YY  0.00000  YZ -0.23564  ZZ -0.00000
     Dipole Oscillator Strength                         0.00164

     Electric Transition Dipole:
            X   -0.0034100   Y   0.1215034   Z  -0.0000000
     Magnetic Transition Dipole (Length):
            X    0.4674343   Y   0.0131186   Z  -0.0000000
     Magnetic Transition Dipole * 1/c :
            X    0.0034110   Y   0.0000957   Z  -0.0000000
     Rotatory Strength (1E-40 esu**2cm**2):           -0.0000000

     Electric Transition Dipole (velocity representation):
            X   -0.0210054   Y   0.7484496   Z  -0.0000000
     Oscillator Strength (velocity repr.) :            0.0622573
     Oscillator Strength (mixed repr.   ) :            0.0101068
     Rotatory Strength   (velocity repr.) :           -0.0000000

     Occ.    3 beta  a   ---  Virt.    5 beta  a      0.99978
  ----------------------------------------------------------------------------
  Root   3         a              0.629582060 a.u.               17.1318 eV 
  <S2> =   2.4381
  ----------------------------------------------------------------------------
     Transition Moments    X  0.01135   Y  0.00032   Z  0.00000
     Transition Moments   XX  0.00000  XY  0.00000  XZ  0.00557
     Transition Moments   YY  0.00000  YZ  0.00016  ZZ  0.00000
     Dipole Oscillator Strength                         0.00005

     Electric Transition Dipole:
            X    0.0113455   Y   0.0003184   Z   0.0000000
     Magnetic Transition Dipole (Length):
            X    0.0025727   Y  -0.0916683   Z   0.0000000
     Magnetic Transition Dipole * 1/c :
            X    0.0000188   Y  -0.0006689   Z   0.0000000
     Rotatory Strength (1E-40 esu**2cm**2):            0.0000000

     Electric Transition Dipole (velocity representation):
            X   -0.0933465   Y  -0.0026198   Z   0.0000000
     Oscillator Strength (velocity repr.) :            0.0036602
     Oscillator Strength (mixed repr.   ) :           -0.0004449
     Rotatory Strength   (velocity repr.) :           -0.0000000

     Occ.    5 alpha a   ---  Virt.    6 alpha a     -0.37080
     Occ.    4 beta  a   ---  Virt.    6 beta  a      0.92871
  ----------------------------------------------------------------------------
  Root   4         a              0.688760734 a.u.               18.7421 eV 
  <S2> =   2.7370
  ----------------------------------------------------------------------------
     Transition Moments    X  0.00000   Y -0.00000   Z -0.09357
     Transition Moments   XX -0.02093  XY  0.00000  XZ -0.00000
     Transition Moments   YY -0.02093  YZ -0.00000  ZZ -0.17671
     Dipole Oscillator Strength                         0.00402

     Electric Transition Dipole:
            X    0.0000000   Y  -0.0000000   Z  -0.0935726
     Magnetic Transition Dipole (Length):
            X    0.0000000   Y  -0.0000000   Z   0.0000000
     Magnetic Transition Dipole * 1/c :
            X    0.0000000   Y  -0.0000000   Z   0.0000000
     Rotatory Strength (1E-40 esu**2cm**2):            0.0000000

     Electric Transition Dipole (velocity representation):
            X   -0.0000000   Y  -0.0000000   Z  -0.0909648
     Oscillator Strength (velocity repr.) :            0.0037995
     Oscillator Strength (mixed repr.   ) :            0.0039084
     Rotatory Strength   (velocity repr.) :            0.0000000

     Occ.    2 alpha a   ---  Virt.    6 alpha a     -0.07399
     Occ.    4 alpha a   ---  Virt.    6 alpha a     -0.65095
     Occ.    2 beta  a   ---  Virt.    6 beta  a      0.08602
     Occ.    3 beta  a   ---  Virt.    6 beta  a      0.75059
  ----------------------------------------------------------------------------
  Root   5         a              0.696657516 a.u.               18.9570 eV 
  <S2> =   1.0619
  ----------------------------------------------------------------------------
     Transition Moments    X -0.00038   Y -0.00001   Z -0.00000
     Transition Moments   XX -0.00000  XY -0.00000  XZ  0.00195
     Transition Moments   YY -0.00000  YZ  0.00005  ZZ -0.00000
     Dipole Oscillator Strength                         0.00000

     Electric Transition Dipole:
            X   -0.0003779   Y  -0.0000106   Z  -0.0000000
     Magnetic Transition Dipole (Length):
            X   -0.0051684   Y   0.1841578   Z  -0.0000000
     Magnetic Transition Dipole * 1/c :
            X   -0.0000377   Y   0.0013439   Z  -0.0000000
     Rotatory Strength (1E-40 esu**2cm**2):           -0.0000000

     Electric Transition Dipole (velocity representation):
            X    0.1677283   Y   0.0047073   Z  -0.0000000
     Oscillator Strength (velocity repr.) :            0.0130762
     Oscillator Strength (mixed repr.   ) :           -0.0000295
     Rotatory Strength   (velocity repr.) :           -0.0000000

     Occ.    5 alpha a   ---  Virt.    6 alpha a     -0.92871
     Occ.    4 beta  a   ---  Virt.    6 beta  a     -0.37080
  ----------------------------------------------------------------------------
  Root   6         a              0.788885720 a.u.               21.4667 eV 
  <S2> =   0.7500
  ----------------------------------------------------------------------------
     Transition Moments    X -0.00261   Y  0.09284   Z  0.00000
     Transition Moments   XX  0.00000  XY -0.00000  XZ -0.00024
     Transition Moments   YY  0.00000  YZ  0.00850  ZZ  0.00000
     Dipole Oscillator Strength                         0.00454

     Electric Transition Dipole:
            X   -0.0026056   Y   0.0928405   Z   0.0000000
     Magnetic Transition Dipole (Length):
            X   -0.1435656   Y  -0.0040292   Z   0.0000000
     Magnetic Transition Dipole * 1/c :
            X   -0.0010476   Y  -0.0000294   Z   0.0000000
     Rotatory Strength (1E-40 esu**2cm**2):            0.0000000

     Electric Transition Dipole (velocity representation):
            X   -0.0055740   Y   0.1986078   Z   0.0000000
     Oscillator Strength (velocity repr.) :            0.0207614
     Oscillator Strength (mixed repr.   ) :            0.0097051
     Rotatory Strength   (velocity repr.) :            0.0000000

     Occ.    3 alpha a   ---  Virt.    6 alpha a     -0.98757
     Occ.    2 beta  a   ---  Virt.    5 beta  a     -0.15659
  ----------------------------------------------------------------------------
  Root   7         a              0.960767785 a.u.               26.1438 eV 
  <S2> =   0.7643
  ----------------------------------------------------------------------------
     Transition Moments    X -0.00000   Y  0.00000   Z  1.05585
     Transition Moments   XX  0.22009  XY -0.00000  XZ -0.00000
     Transition Moments   YY  0.22009  YZ  0.00000  ZZ  1.78960
     Dipole Oscillator Strength                         0.71406

     Electric Transition Dipole:
            X   -0.0000000   Y   0.0000000   Z   1.0558538
     Magnetic Transition Dipole (Length):
            X    0.0000000   Y   0.0000000   Z  -0.0000000
     Magnetic Transition Dipole * 1/c :
            X    0.0000000   Y   0.0000000   Z  -0.0000000
     Rotatory Strength (1E-40 esu**2cm**2):           -0.0000000

     Electric Transition Dipole (velocity representation):
            X    0.0000000   Y   0.0000000   Z   0.7816110
     Oscillator Strength (velocity repr.) :            0.3912988
     Oscillator Strength (mixed repr.   ) :            0.5285933
     Rotatory Strength   (velocity repr.) :           -0.0000000

     Occ.    4 alpha a   ---  Virt.    6 alpha a     -0.75238
     Occ.    3 beta  a   ---  Virt.    6 beta  a     -0.65741
  ----------------------------------------------------------------------------
  Root   8         a              1.044000969 a.u.               28.4087 eV 
  <S2> =   0.7508
  ----------------------------------------------------------------------------
     Transition Moments    X -0.01542   Y  0.54937   Z -0.00000
     Transition Moments   XX -0.00000  XY  0.00000  XZ -0.00147
     Transition Moments   YY -0.00000  YZ  0.05243  ZZ -0.00000
     Dipole Oscillator Strength                         0.21023

     Electric Transition Dipole:
            X   -0.0154182   Y   0.5493722   Z  -0.0000000
     Magnetic Transition Dipole (Length):
            X   -0.0770704   Y  -0.0021630   Z   0.0000000
     Magnetic Transition Dipole * 1/c :
            X   -0.0005624   Y  -0.0000158   Z   0.0000000
     Rotatory Strength (1E-40 esu**2cm**2):            0.0000000

     Electric Transition Dipole (velocity representation):
            X   -0.0112728   Y   0.4016656   Z  -0.0000000
     Oscillator Strength (velocity repr.) :            0.1123779
     Oscillator Strength (mixed repr.   ) :            0.1537032
     Rotatory Strength   (velocity repr.) :            0.0000000

     Occ.    3 alpha a   ---  Virt.    6 alpha a      0.15637
     Occ.    2 beta  a   ---  Virt.    5 beta  a     -0.98756
  ----------------------------------------------------------------------------
  Root   9         a              1.533908991 a.u.               41.7398 eV 
  <S2> =   2.3641
  ----------------------------------------------------------------------------
     Transition Moments    X  0.00000   Y  0.00000   Z -0.15676
     Transition Moments   XX -0.08012  XY  0.00000  XZ  0.00000
     Transition Moments   YY -0.08012  YZ  0.00000  ZZ -0.58637
     Dipole Oscillator Strength                         0.02513

     Electric Transition Dipole:
            X    0.0000000   Y   0.0000000   Z  -0.1567564
     Magnetic Transition Dipole (Length):
            X   -0.0000000   Y   0.0000000   Z   0.0000000
     Magnetic Transition Dipole * 1/c :
            X   -0.0000000   Y   0.0000000   Z   0.0000000
     Rotatory Strength (1E-40 esu**2cm**2):           -0.0000000

     Electric Transition Dipole (velocity representation):
            X    0.0000000   Y   0.0000000   Z  -0.0938021
     Oscillator Strength (velocity repr.) :            0.0089977
     Oscillator Strength (mixed repr.   ) :            0.0150365
     Rotatory Strength   (velocity repr.) :           -0.0000000

     Occ.    2 alpha a   ---  Virt.    6 alpha a     -0.32547
     Occ.    4 alpha a   ---  Virt.    6 alpha a      0.09933
     Occ.    2 beta  a   ---  Virt.    6 beta  a      0.93879
     Occ.    3 beta  a   ---  Virt.    6 beta  a     -0.05353
  ----------------------------------------------------------------------------
  Root  10         a              1.762313680 a.u.               47.9550 eV 
  <S2> =   1.1309
  ----------------------------------------------------------------------------
     Transition Moments    X  0.00000   Y  0.00000   Z -0.19109
     Transition Moments   XX -0.13772  XY  0.00000  XZ  0.00000
     Transition Moments   YY -0.13772  YZ -0.00000  ZZ -0.90330
     Dipole Oscillator Strength                         0.04290

     Electric Transition Dipole:
            X    0.0000000   Y   0.0000000   Z  -0.1910865
     Magnetic Transition Dipole (Length):
            X    0.0000000   Y  -0.0000000   Z   0.0000000
     Magnetic Transition Dipole * 1/c :
            X    0.0000000   Y  -0.0000000   Z   0.0000000
     Rotatory Strength (1E-40 esu**2cm**2):           -0.0000000

     Electric Transition Dipole (velocity representation):
            X    0.0000000   Y   0.0000000   Z  -0.1441480
     Oscillator Strength (velocity repr.) :            0.0244123
     Oscillator Strength (mixed repr.   ) :            0.0323616
     Rotatory Strength   (velocity repr.) :           -0.0000000

     Occ.    2 alpha a   ---  Virt.    6 alpha a      0.94265
     Occ.    2 beta  a   ---  Virt.    6 beta  a      0.33096
  ----------------------------------------------------------------------------
  Root  11         a             25.308793731 a.u.              688.6876 eV 
  <S2> =   0.7518
  ----------------------------------------------------------------------------
     Transition Moments    X -0.00158   Y  0.05646   Z  0.00000
     Transition Moments   XX  0.00000  XY -0.00000  XZ  0.00000
     Transition Moments   YY  0.00000  YZ -0.00014  ZZ -0.00000
     Dipole Oscillator Strength                         0.05383

     Electric Transition Dipole:
            X   -0.0015846   Y   0.0564626   Z   0.0000000
     Magnetic Transition Dipole (Length):
            X   -0.0002868   Y  -0.0000080   Z  -0.0000000
     Magnetic Transition Dipole * 1/c :
            X   -0.0000021   Y  -0.0000001   Z  -0.0000000
     Rotatory Strength (1E-40 esu**2cm**2):            0.0000000

     Electric Transition Dipole (velocity representation):
            X   -0.0012725   Y   0.0453423   Z   0.0000000
     Oscillator Strength (velocity repr.) :            0.0347160
     Oscillator Strength (mixed repr.   ) :            0.0432302
     Rotatory Strength   (velocity repr.) :            0.0000000

     Occ.    1 beta  a   ---  Virt.    5 beta  a     -1.00000
  ----------------------------------------------------------------------------
  Root  12         a             26.150923473 a.u.              711.6031 eV 
  <S2> =   2.4607
  ----------------------------------------------------------------------------
     Transition Moments    X  0.00000   Y -0.00000   Z  0.02049
     Transition Moments   XX  0.00243  XY  0.00000  XZ -0.00000
     Transition Moments   YY  0.00243  YZ  0.00000  ZZ  0.00713
     Dipole Oscillator Strength                         0.00732

     Electric Transition Dipole:
            X    0.0000000   Y  -0.0000000   Z   0.0204871
     Magnetic Transition Dipole (Length):
            X    0.0000000   Y   0.0000000   Z   0.0000000
     Magnetic Transition Dipole * 1/c :
            X    0.0000000   Y   0.0000000   Z   0.0000000
     Rotatory Strength (1E-40 esu**2cm**2):            0.0000000

     Electric Transition Dipole (velocity representation):
            X    0.0000000   Y  -0.0000000   Z   0.0156452
     Oscillator Strength (velocity repr.) :            0.0042673
     Oscillator Strength (mixed repr.   ) :            0.0055880
     Rotatory Strength   (velocity repr.) :            0.0000000

     Occ.    1 alpha a   ---  Virt.    6 alpha a     -0.38547
     Occ.    1 beta  a   ---  Virt.    6 beta  a      0.92272
  ----------------------------------------------------------------------------
  Root  13         a             26.208915330 a.u.              713.1812 eV 
  <S2> =   1.0393
  ----------------------------------------------------------------------------
     Transition Moments    X -0.00000   Y -0.00000   Z -0.04831
     Transition Moments   XX -0.00556  XY -0.00000  XZ  0.00000
     Transition Moments   YY -0.00556  YZ -0.00000  ZZ -0.01881
     Dipole Oscillator Strength                         0.04078

     Electric Transition Dipole:
            X   -0.0000000   Y  -0.0000000   Z  -0.0483083
     Magnetic Transition Dipole (Length):
            X   -0.0000000   Y  -0.0000000   Z  -0.0000000
     Magnetic Transition Dipole * 1/c :
            X   -0.0000000   Y  -0.0000000   Z  -0.0000000
     Rotatory Strength (1E-40 esu**2cm**2):            0.0000000

     Electric Transition Dipole (velocity representation):
            X   -0.0000000   Y   0.0000000   Z  -0.0356346
     Oscillator Strength (velocity repr.) :            0.0221871
     Oscillator Strength (mixed repr.   ) :            0.0300781
     Rotatory Strength   (velocity repr.) :            0.0000000

     Occ.    1 alpha a   ---  Virt.    6 alpha a     -0.92272
     Occ.    1 beta  a   ---  Virt.    6 beta  a     -0.38547

              Target root =      1
          Target symmetry = none
      Ground state energy =    -98.177183023145
        Excitation energy =     -0.000000000000
     Excited state energy =    -98.177183023145


 Task  times  cpu:        0.1s     wall:        0.5s


                                NWChem Input Module
                                -------------------


 Summary of allocated global arrays
-----------------------------------
  No active global arrays



                         GA Statistics for process    0
                         ------------------------------

       create   destroy   get      put      acc     scatter   gather  read&inc
calls:  434      434     9003     4907      773      208        0      175     
number of processes/call 1.00e+00 1.00e+00 1.00e+00 0.00e+00 0.00e+00
bytes total:             1.29e+06 5.67e+05 4.82e+05 2.88e+02 0.00e+00 1.40e+03
bytes remote:            0.00e+00 0.00e+00 0.00e+00 0.00e+00 0.00e+00 0.00e+00
Max memory consumed for GA by this process: 5062472 bytes

MA_summarize_allocated_blocks: starting scan ...
MA_summarize_allocated_blocks: scan completed: 0 heap blocks, 0 stack blocks
MA usage statistics:

	allocation statistics:
					      heap	     stack
					      ----	     -----
	current number of blocks	         0	         0
	maximum number of blocks	        20	        35
	current total bytes		         0	         0
	maximum total bytes		     80120	  22510008
	maximum total K-bytes		        81	     22511
	maximum total M-bytes		         1	        23


                                     CITATION
                                     --------
                Please cite the following reference when publishing
                           results obtained with NWChem:

                 M. Valiev, E.J. Bylaska, N. Govind, K. Kowalski,
              T.P. Straatsma, H.J.J. van Dam, D. Wang, J. Nieplocha,
                        E. Apra, T.L. Windus, W.A. de Jong
                 "NWChem: a comprehensive and scalable open-source
                  solution for large scale molecular simulations"
                      Comput. Phys. Commun. 181, 1477 (2010)
                           doi:10.1016/j.cpc.2010.04.018

                                      AUTHORS
                                      -------
          E. Apra, E. J. Bylaska, W. A. de Jong, N. Govind, K. Kowalski,
       T. P. Straatsma, M. Valiev, H. J. J. van Dam, D. Wang, T. L. Windus,
        J. Hammond, J. Autschbach, K. Bhaskaran-Nair, J. Brabec, K. Lopata,
       S. A. Fischer, S. Krishnamoorthy, W. Ma, M. Klemm, O. Villa, Y. Chen,
    V. Anisimov, F. Aquino, S. Hirata, M. T. Hackler, T. Risthaus, M. Malagoli,
       A. Marenich, A. Otero-de-la-Roza, J. Mullin, P. Nichols, R. Peverati,
     J. Pittner, Y. Zhao, P.-D. Fan, A. Fonari, M. Williamson, R. J. Harrison,
       J. R. Rehr, M. Dupuis, D. Silverstein, D. M. A. Smith, J. Nieplocha,
        V. Tipparaju, M. Krishnan, B. E. Van Kuiken, A. Vazquez-Mayagoitia,
        L. Jensen, M. Swart, Q. Wu, T. Van Voorhis, A. A. Auer, M. Nooijen,
      L. D. Crosby, E. Brown, G. Cisneros, G. I. Fann, H. Fruchtl, J. Garza,
        K. Hirao, R. A. Kendall, J. A. Nichols, K. Tsemekhman, K. Wolinski,
     J. Anchell, D. E. Bernholdt, P. Borowski, T. Clark, D. Clerc, H. Dachsel,
   M. J. O. Deegan, K. Dyall, D. Elwood, E. Glendening, M. Gutowski, A. C. Hess,
         J. Jaffe, B. G. Johnson, J. Ju, R. Kobayashi, R. Kutteh, Z. Lin,
   R. Littlefield, X. Long, B. Meng, T. Nakajima, S. Niu, L. Pollack, M. Rosing,
   K. Glaesemann, G. Sandrone, M. Stave, H. Taylor, G. Thomas, J. H. van Lenthe,
                               A. T. Wong, Z. Zhang.

 Total times  cpu:        0.1s     wall:        0.8s
