localhost.localdomain 127.0.0
Q-Chem Developer Version! Running on 127.0.0.*
                  Welcome to Q-Chem
     A Quantum Leap Into The Future Of Chemistry


 Q-Chem 5.0, Q-Chem, Inc., Pleasanton, CA (2017)

 Yihan Shao,  Zhengting Gan,  E. Epifanovsky,  A. T. B. Gilbert,  M. Wormit,  
 J. Kussmann,  A. W. Lange,  A. Behn,  Jia Deng,  Xintian Feng,  D. Ghosh,  
 M. Goldey,  P. R. Horn,  L. D. Jacobson,  I. Kaliman,  T. Kus,  A. Landau,  
 Jie Liu,  E. I. Proynov,  R. M. Richard,  R. P. Steele,  E. J. Sundstrom,  
 H. L. Woodcock III,  P. M. Zimmerman,  D. Zuev,  B. Albrecht,  E. Alguire,  
 S. A. Baeppler,  Z. Benda,  Y. A. Bernard,  E. J. Berquist,  K. B. Bravaya,  
 D. Casanova,  Chun-Min Chang,  Yunqing Chen,  A. Chien,  K. D. Closser,  
 M. P. Coons,  S. Dasgupta,  M. Diedenhofen,  Hainam Do,  R. G. Edgar,  
 Po-Tung Fang,  S. Fatehi,  Qingguo Feng,  Qinghui Ge,  A. Ghysels,  
 J. Gomes,  J. Gonthier,  A. Gunina,  M. W. D. Hanson-Heine,  
 P. H. P. Harbach,  A. W. Hauser,  J. E. Herr,  E. G. Hohenstein,  
 Z. C. Holden,  Kerwin Hui,  T.-C. Jagau,  Hyunjun Ji,  B. Kaduk,  
 K. Khistyaev,  Jaehoon Kim,  P. Klunzinger,  K. Koh,  D. Kosenkov,  
 T. Kowalczyk,  C. M. Krauter,  A. Kunitsa,  Ka Un Lao,  A. Laurent,  
 K. V. Lawler,  Joonho Lee,  D. Lefrancois,  S. Lehtola,  D. S. Levine,  
 Yi-Pei Li,  You-Sheng Lin,  Fenglai Liu,  E. Livshits,  A. Luenser,  
 P. Manohar,  E. Mansoor,  S. F. Manzer,  Shan-Ping Mao,  Yuezhi Mao,  
 N. Mardirossian,  A. V. Marenich,  L. A. Martinez-Martinez,  S. A. Maurer,  
 N. J. Mayhall,  S. C. McKenzie,  J.-M. Mewes,  A. F. Morrison,  K. Nanda,  
 T. S. Nguyen-Beck,  R. Olivares-Amaya,  J. A. Parkhill,  T. M. Perrine,  
 F. Plasser,  S. Prager,  A. Prociuk,  D. R. Rehn,  F. Rob,  M. Schneider,  
 N. Sergueev,  S. M. Sharada,  S. Sharma,  D. W. Small,  T. Stauch,  
 T. Stein,  Yu-Chuan Su,  A. J. W. Thom,  T. Tsuchimochi,  L. Vogt,  
 O. Vydrov,  M. A. Watson,  J. Wenzel,  M. de Wergifosse,  T. A. Wesolowski,  
 A. White,  J. Witte,  A. Yamada,  Jun Yang,  K. Yao,  S. Yeganeh,  
 S. R. Yost,  Zhi-Qiang You,  A. Zech,  Igor Ying Zhang,  Xing Zhang,  
 Yan Zhao,  Ying Zhu,  B. R. Brooks,  G. K. L. Chan,  C. J. Cramer,  
 M. S. Gordon,  W. J. Hehre,  A. Klamt,  M. W. Schmidt,  C. D. Sherrill,  
 D. G. Truhlar,  A. Aspuru-Guzik,  R. Baer,  A. T. Bell,  N. A. Besley,  
 Jeng-Da Chai,  A. Dreuw,  B. D. Dunietz,  T. R. Furlani,  Chao-Ping Hsu,  
 Yousung Jung,  Jing Kong,  D. S. Lambrecht,  WanZhen Liang,  C. Ochsenfeld,  
 V. A. Rassolov,  L. V. Slipchenko,  J. E. Subotnik,  T. Van Voorhis,  
 J. M. Herbert,  A. I. Krylov,  P. M. W. Gill,  M. Head-Gordon

 Contributors to earlier versions of Q-Chem not listed above: 
 R. D. Adamson,  B. Austin,  J. Baker,  G. J. O. Beran,  K. Brandhorst,  
 S. T. Brown,  E. F. C. Byrd,  A. K. Chakraborty,  C.-L. Cheng,  
 Siu Hung Chien,  D. M. Chipman,  D. L. Crittenden,  H. Dachsel,  
 R. A. DiStasio Jr.,  R. J. Doerksen,  A. D. Dutoi,  L. Fusti-Molnar,  
 W. A. Goddard III,  A. Golubeva-Zadorozhnaya,  S. R. Gwaltney,  G. Hawkins,  
 A. Heyden,  S. Hirata,  G. Kedziora,  F. J. Keil,  C. Kelley,  Jihan Kim,  
 R. A. King,  R. Z. Khaliullin,  P. P. Korambath,  W. Kurlancheek,  
 A. M. Lee,  M. S. Lee,  S. V. Levchenko,  Ching Yeh Lin,  D. Liotard,  
 R. C. Lochan,  I. Lotan,  P. E. Maslen,  N. Nair,  D. P. O'Neill,  
 D. Neuhauser,  E. Neuscamman,  C. M. Oana,  R. Olson,  B. Peters,  
 R. Peverati,  P. A. Pieniazek,  Y. M. Rhee,  J. Ritchie,  M. A. Rohrdanz,  
 E. Rosta,  N. J. Russ,  H. F. Schaefer III,  N. E. Schultz,  N. Shenvi,  
 A. C. Simmonett,  A. Sodt,  D. Stuck,  K. S. Thanthiriwatte,  V. Vanovschi,  
 Tao Wang,  A. Warshel,  C. F. Williams,  Q. Wu,  X. Xu,  W. Zhang

 Please cite Q-Chem as follows:
 Y. Shao et al., Mol. Phys. 113, 184-215 (2015)
 DOI: 10.1080/00268976.2014.952696

 Q-Chem 5.0.1 for Intel X86 EM64T Linux

 Parts of Q-Chem use Armadillo 5.200.1 (Boston Tea Smuggler).
 http://arma.sourceforge.net/

Compilation information
-----------------------

 SVN revision             | 26488
 SVN branch               | branches/libresponse
 Last SVN revision        | 26488
 Last SVN author          | ericb
 System                   | Linux-4.13.6-1-ARCH
 Processor                | x86_64
 Compiler                 | GNU
 C compiler version       | 7.2.0
 CXX compiler version     | 7.2.0
 Fortran compiler version | 7.2.0


 Q-Chem begins on Mon Dec 18 21:18:43 2017  

Host: copper
0

     Scratch files written to /tmp/qchem/qchem410//

Checking the input file for inconsistencies... 	...done.

--------------------------------------------------------------
User input:
--------------------------------------------------------------
$rem
 method = hf
 basis = aug-cc-pvdz
 scf_convergence = 10
 thresh = 14
 moprop = 103
 symmetry = false
 sym_ignore = true
 moprop_conv_1st = 9
 moprop_conv_2nd = 9
$end

$fdpfreq
shg
0.0773178
au
$end

$molecule
0 1
O          0.000000000000     0.000000000000    -0.075791843589
H          0.000000000000    -0.866811828967     0.601435779270
H          0.000000000000     0.866811828967     0.601435779270
$end
--------------------------------------------------------------
 ----------------------------------------------------------------
             Standard Nuclear Orientation (Angstroms)
    I     Atom           X                Y                Z
 ----------------------------------------------------------------
    1      O       0.0000000000     0.0000000000    -0.0757918436
    2      H       0.0000000000    -0.8668118290     0.6014357793
    3      H       0.0000000000     0.8668118290     0.6014357793
 ----------------------------------------------------------------
 Nuclear Repulsion Energy =     8.0023664841 hartrees
 There are        5 alpha and        5 beta electrons
 Requested basis set is aug-cc-pVDZ
 There are 19 shells and 41 basis functions

 Total QAlloc Memory Limit   2000 MB
 Mega-Array Size        61 MB
 MEM_STATIC part        62 MB

                       Distance Matrix (Angstroms)
             O (  1)   H (  2)
   H (  2)  1.100000
   H (  3)  1.100000  1.733624

 A cutoff of  1.0D-14 yielded    190 shell pairs
 There are       902 function pairs (       997 Cartesian)
 Smallest overlap matrix eigenvalue = 3.77E-03

 Scale SEOQF with 1.000000e-01/1.000000e-01/1.000000e-01

 Standard Electronic Orientation quadrupole field applied
 Guess from superposition of atomic densities
 Warning:  Energy on first SCF cycle will be non-variational
 SAD guess density has 10.000000 electrons
 A restricted Hartree-Fock SCF calculation will be
 performed using Pulay DIIS extrapolation
 SCF converges when DIIS error is below 1.0E-10
 ---------------------------------------
  Cycle       Energy         DIIS Error
 ---------------------------------------
    1     -75.6568411354      6.22E-02
    2     -75.9649515978      1.41E-02
    3     -75.9897378188      9.30E-03
    4     -76.0030722341      8.89E-04
    5     -76.0033137190      2.77E-04
    6     -76.0033510133      6.42E-05
    7     -76.0033539436      1.06E-05
    8     -76.0033540243      1.25E-06
    9     -76.0033540252      1.94E-07
   10     -76.0033540252      4.05E-08
   11     -76.0033540252      9.60E-09
   12     -76.0033540252      1.91E-09
   13     -76.0033540252      2.46E-10
   14     -76.0033540252      2.68E-11 Convergence criterion met
 ---------------------------------------
 SCF time:  CPU 0.18 s  wall 0.18 s
 SCF   energy in the final basis set = -76.00335403
 Total energy in the final basis set = -76.00335403


      ==================================================== 
      ===                                              === 
      ===      MO-based Calculation of Properties      === 
      ===                                              === 
      ===          J. Kussmann, C. Ochsenfeld          === 
      ===                                              === 
      ==================================================== 

WARNING: SYMMETRY USAGE disabled in MO-CPSCF for now... 

 --> static/frequency-dependent 1st hyper-polarizability

  Calculate frequency-dependent polarizabilities for 1 frequencies:
  0.077318

Now forming Dipole-matrix (explicitly)... 
...done! 

  DIIS-Info:
  starting crit.:                        1.0e+00
  Max. dimension of DIIS-subspace:            15
  Mode: cyclic vector sampling, shifting vectors if max. dimension is reached.

  ++++++++++++++++++++++++++++
  ++++ TDSCF  - 1st order ++++
  ++++++++++++++++++++++++++++

  ConvCrit:  1.0e-09       Max. Iter:    50
  Treat Ex/Ey/Ez together...

    FREQUENCY   1:         0.0773178000 a.u.

  ----------------------------------------------------------------------------------------
     Iter              Error Ex           Error Ey          Error Ez          Converged
  ----------------------------------------------------------------------------------------

 =======================================================
   Intermediate polarization tensor
 =======================================================
   ISOTROPIC:        9.35556489
   ANISOTROPIC:      3.66327244
   Trace =          28.06669467
   Full Tensor:
          7.44363262      -0.00000000      -0.00000000
         -0.00000000      11.62742410       0.00000000
         -0.00000000       0.00000000       8.99563794
 =======================================================

        0          10000000000.0000000000  (isotropic)


 =======================================================
   Intermediate polarization tensor
 =======================================================
   ISOTROPIC:       10.14692640
   ANISOTROPIC:      3.87380049
   Trace =          30.44077921
   Full Tensor:
          7.85923423      -0.00000000      -0.00000000
         -0.00000000      12.32853859       0.00000000
         -0.00000000       0.00000000      10.25300640
 =======================================================

        1             0.7913615148  (isotropic)


 =======================================================
   Intermediate polarization tensor
 =======================================================
   ISOTROPIC:       10.22014328
   ANISOTROPIC:      3.93230377
   Trace =          30.66042984
   Full Tensor:
          8.03057023      -0.00000000      -0.00000000
         -0.00000000      12.56339488       0.00000000
         -0.00000000       0.00000000      10.06646473
 =======================================================

        2             0.0732168748  (isotropic)


 =======================================================
   Intermediate polarization tensor
 =======================================================
   ISOTROPIC:       10.31605110
   ANISOTROPIC:      3.97780485
   Trace =          30.94815329
   Full Tensor:
          8.13165958      -0.00000000      -0.00000000
         -0.00000000      12.71041264       0.00000000
         -0.00000000       0.00000000      10.10608108
 =======================================================

        3             0.0959078195  (isotropic)


 =======================================================
   Intermediate polarization tensor
 =======================================================
   ISOTROPIC:       10.35947794
   ANISOTROPIC:      3.98126264
   Trace =          31.07843383
   Full Tensor:
          8.16202940      -0.00000000      -0.00000000
         -0.00000000      12.74734883       0.00000000
         -0.00000000       0.00000000      10.16905560
 =======================================================

        4             0.0434268458  (isotropic)


 =======================================================
   Intermediate polarization tensor
 =======================================================
   ISOTROPIC:       10.37953948
   ANISOTROPIC:      3.97593034
   Trace =          31.13861844
   Full Tensor:
          8.17336309      -0.00000000      -0.00000000
         -0.00000000      12.75499947       0.00000000
         -0.00000000       0.00000000      10.21025588
 =======================================================

        5             0.0200615374  (isotropic)


 =======================================================
   Intermediate polarization tensor
 =======================================================
   ISOTROPIC:       10.39058405
   ANISOTROPIC:      3.97147076
   Trace =          31.17175215
   Full Tensor:
          8.18015688      -0.00000000      -0.00000000
         -0.00000000      12.75795272       0.00000000
         -0.00000000       0.00000000      10.23364255
 =======================================================

        6             0.0110445678  (isotropic)


 =======================================================
   Intermediate polarization tensor
 =======================================================
   ISOTROPIC:       10.39640356
   ANISOTROPIC:      3.96778187
   Trace =          31.18921069
   Full Tensor:
          8.18503084      -0.00000000      -0.00000000
         -0.00000000      12.75912507       0.00000000
         -0.00000000       0.00000000      10.24505479
 =======================================================

        7             0.0058195160  (isotropic)


 =======================================================
   Intermediate polarization tensor
 =======================================================
   ISOTROPIC:       10.39928793
   ANISOTROPIC:      3.96479742
   Trace =          31.19786380
   Full Tensor:
          8.18870209      -0.00000000      -0.00000000
         -0.00000000      12.75951334       0.00000000
         -0.00000000       0.00000000      10.24964837
 =======================================================

        8             0.0028843686  (isotropic)


 =======================================================
   Intermediate polarization tensor
 =======================================================
   ISOTROPIC:       10.40074843
   ANISOTROPIC:      3.96258587
   Trace =          31.20224529
   Full Tensor:
          8.19135425      -0.00000000      -0.00000000
         -0.00000000      12.75962332       0.00000000
         -0.00000000       0.00000000      10.25126773
 =======================================================

        9             0.0014604980  (isotropic)


 =======================================================
   Intermediate polarization tensor
 =======================================================
   ISOTROPIC:       10.40150390
   ANISOTROPIC:      3.96118094
   Trace =          31.20451169
   Full Tensor:
          8.19302998      -0.00000000      -0.00000000
         -0.00000000      12.75965488       0.00000000
         -0.00000000       0.00000000      10.25182682
 =======================================================

       10             0.0007554641  (isotropic)


 =======================================================
   Intermediate polarization tensor
 =======================================================
   ISOTROPIC:       10.40185811
   ANISOTROPIC:      3.96046793
   Trace =          31.20557432
   Full Tensor:
          8.19388144      -0.00000000      -0.00000000
         -0.00000000      12.75966648       0.00000000
         -0.00000000       0.00000000      10.25202640
 =======================================================

       11             0.0003542110  (isotropic)


 =======================================================
   Intermediate polarization tensor
 =======================================================
   ISOTROPIC:       10.40199680
   ANISOTROPIC:      3.96018430
   Trace =          31.20599041
   Full Tensor:
          8.19422059      -0.00000000      -0.00000000
         -0.00000000      12.75967106       0.00000000
         -0.00000000       0.00000000      10.25209876
 =======================================================

       12             0.0001386981  (isotropic)


 =======================================================
   Intermediate polarization tensor
 =======================================================
   ISOTROPIC:       10.40204449
   ANISOTROPIC:      3.96008698
   Trace =          31.20613347
   Full Tensor:
          8.19433645      -0.00000000      -0.00000000
         -0.00000000      12.75967223       0.00000000
         -0.00000000       0.00000000      10.25212479
 =======================================================

       13             0.0000476855  (isotropic)


 =======================================================
   Intermediate polarization tensor
 =======================================================
   ISOTROPIC:       10.40206086
   ANISOTROPIC:      3.96005278
   Trace =          31.20618259
   Full Tensor:
          8.19437646      -0.00000000      -0.00000000
         -0.00000000      12.75967199       0.00000000
         -0.00000000       0.00000000      10.25213414
 =======================================================

       14             0.0000163729  (isotropic)


 =======================================================
   Intermediate polarization tensor
 =======================================================
   ISOTROPIC:       10.40206692
   ANISOTROPIC:      3.96003968
   Trace =          31.20620075
   Full Tensor:
          8.19439153      -0.00000000      -0.00000000
         -0.00000000      12.75967165       0.00000000
         -0.00000000       0.00000000      10.25213757
 =======================================================

       15             0.0000060546  (isotropic)


 =======================================================
   Intermediate polarization tensor
 =======================================================
   ISOTROPIC:       10.40206930
   ANISOTROPIC:      3.96003452
   Trace =          31.20620789
   Full Tensor:
          8.19439746      -0.00000000      -0.00000000
         -0.00000000      12.75967152       0.00000000
         -0.00000000       0.00000000      10.25213891
 =======================================================

       16             0.0000023786  (isotropic)


 =======================================================
   Intermediate polarization tensor
 =======================================================
   ISOTROPIC:       10.40207021
   ANISOTROPIC:      3.96003248
   Trace =          31.20621064
   Full Tensor:
          8.19439986      -0.00000000      -0.00000000
         -0.00000000      12.75967150       0.00000000
         -0.00000000       0.00000000      10.25213928
 =======================================================

       17             0.0000009157  (isotropic)


 =======================================================
   Intermediate polarization tensor
 =======================================================
   ISOTROPIC:       10.40207056
   ANISOTROPIC:      3.96003171
   Trace =          31.20621167
   Full Tensor:
          8.19440078      -0.00000000      -0.00000000
         -0.00000000      12.75967150       0.00000000
         -0.00000000       0.00000000      10.25213939
 =======================================================

       18             0.0000003447  (isotropic)


 =======================================================
   Intermediate polarization tensor
 =======================================================
   ISOTROPIC:       10.40207067
   ANISOTROPIC:      3.96003144
   Trace =          31.20621200
   Full Tensor:
          8.19440110      -0.00000000      -0.00000000
         -0.00000000      12.75967150       0.00000000
         -0.00000000       0.00000000      10.25213940
 =======================================================

       19             0.0000001104  (isotropic)


 =======================================================
   Intermediate polarization tensor
 =======================================================
   ISOTROPIC:       10.40207070
   ANISOTROPIC:      3.96003136
   Trace =          31.20621209
   Full Tensor:
          8.19440119      -0.00000000      -0.00000000
         -0.00000000      12.75967150       0.00000000
         -0.00000000       0.00000000      10.25213940
 =======================================================

       20             0.0000000304  (isotropic)


 =======================================================
   Intermediate polarization tensor
 =======================================================
   ISOTROPIC:       10.40207070
   ANISOTROPIC:      3.96003135
   Trace =          31.20621211
   Full Tensor:
          8.19440121      -0.00000000      -0.00000000
         -0.00000000      12.75967150       0.00000000
         -0.00000000       0.00000000      10.25213939
 =======================================================

       21             0.0000000046  (isotropic)


 =======================================================
   Intermediate polarization tensor
 =======================================================
   ISOTROPIC:       10.40207070
   ANISOTROPIC:      3.96003135
   Trace =          31.20621211
   Full Tensor:
          8.19440121      -0.00000000      -0.00000000
         -0.00000000      12.75967150       0.00000000
         -0.00000000       0.00000000      10.25213939
 =======================================================

       22             0.0000000002  (isotropic)



  ===== TDSCF converged after 22 iterations... =====



    FREQUENCY   2:         0.1546356000 a.u.

  ----------------------------------------------------------------------------------------
     Iter              Error Ex           Error Ey          Error Ez          Converged
  ----------------------------------------------------------------------------------------

 =======================================================
   Intermediate polarization tensor
 =======================================================
   ISOTROPIC:       10.73759766
   ANISOTROPIC:      4.10574984
   Trace =          32.21279297
   Full Tensor:
          8.43998054      -0.00000000      -0.00000000
         -0.00000000      13.17472964       0.00000000
         -0.00000000       0.00000000      10.59808280
 =======================================================

        0          10000000000.0000000000  (isotropic)


 =======================================================
   Intermediate polarization tensor
 =======================================================
   ISOTROPIC:       10.89618849
   ANISOTROPIC:      4.14853959
   Trace =          32.68856547
   Full Tensor:
          8.58572396      -0.00000000      -0.00000000
         -0.00000000      13.36789666       0.00000000
         -0.00000000       0.00000000      10.73494485
 =======================================================

        1             0.1585908336  (isotropic)


 =======================================================
   Intermediate polarization tensor
 =======================================================
   ISOTROPIC:       11.00765393
   ANISOTROPIC:      4.17578495
   Trace =          33.02296179
   Full Tensor:
          8.67447716      -0.00000000      -0.00000000
         -0.00000000      13.48938790       0.00000000
         -0.00000000       0.00000000      10.85909673
 =======================================================

        2             0.1114654397  (isotropic)


 =======================================================
   Intermediate polarization tensor
 =======================================================
   ISOTROPIC:       11.07448054
   ANISOTROPIC:      4.19388383
   Trace =          33.22344163
   Full Tensor:
          8.73801046      -0.00000000      -0.00000000
         -0.00000000      13.57259071       0.00000000
         -0.00000000       0.00000000      10.91284046
 =======================================================

        3             0.0668266122  (isotropic)


 =======================================================
   Intermediate polarization tensor
 =======================================================
   ISOTROPIC:       11.10646046
   ANISOTROPIC:      4.18549413
   Trace =          33.31938137
   Full Tensor:
          8.77246389      -0.00000000      -0.00000000
         -0.00000000      13.59776940       0.00000000
         -0.00000000       0.00000000      10.94914808
 =======================================================

        4             0.0319799128  (isotropic)


 =======================================================
   Intermediate polarization tensor
 =======================================================
   ISOTROPIC:       11.12241888
   ANISOTROPIC:      4.17302105
   Trace =          33.36725665
   Full Tensor:
          8.79607008      -0.00000000      -0.00000000
         -0.00000000      13.60687202       0.00000000
         -0.00000000       0.00000000      10.96431456
 =======================================================

        5             0.0159584288  (isotropic)


 =======================================================
   Intermediate polarization tensor
 =======================================================
   ISOTROPIC:       11.13367001
   ANISOTROPIC:      4.16037149
   Trace =          33.40101002
   Full Tensor:
          8.81615501      -0.00000000      -0.00000000
         -0.00000000      13.61205124       0.00000000
         -0.00000000       0.00000000      10.97280377
 =======================================================

        6             0.0112511214  (isotropic)


 =======================================================
   Intermediate polarization tensor
 =======================================================
   ISOTROPIC:       11.14295998
   ANISOTROPIC:      4.14665647
   Trace =          33.42887994
   Full Tensor:
          8.83540013      -0.00000000      -0.00000000
         -0.00000000      13.61505788       0.00000000
         -0.00000000       0.00000000      10.97842193
 =======================================================

        7             0.0092899743  (isotropic)


 =======================================================
   Intermediate polarization tensor
 =======================================================
   ISOTROPIC:       11.15099124
   ANISOTROPIC:      4.13157958
   Trace =          33.45297373
   Full Tensor:
          8.85467630      -0.00000000      -0.00000000
         -0.00000000      13.61641351       0.00000000
         -0.00000000       0.00000000      10.98188392
 =======================================================

        8             0.0080312635  (isotropic)


 =======================================================
   Intermediate polarization tensor
 =======================================================
   ISOTROPIC:       11.15777315
   ANISOTROPIC:      4.11659365
   Trace =          33.47331944
   Full Tensor:
          8.87293996      -0.00000000      -0.00000000
         -0.00000000      13.61678917       0.00000000
         -0.00000000       0.00000000      10.98359031
 =======================================================

        9             0.0067819034  (isotropic)


 =======================================================
   Intermediate polarization tensor
 =======================================================
   ISOTROPIC:       11.16256636
   ANISOTROPIC:      4.10517553
   Trace =          33.48769908
   Full Tensor:
          8.88666265      -0.00000000      -0.00000000
         -0.00000000      13.61683332       0.00000000
         -0.00000000       0.00000000      10.98420310
 =======================================================

       10             0.0047932111  (isotropic)


 =======================================================
   Intermediate polarization tensor
 =======================================================
   ISOTROPIC:       11.16467178
   ANISOTROPIC:      4.10003087
   Trace =          33.49401535
   Full Tensor:
          8.89282764      -0.00000000      -0.00000000
         -0.00000000      13.61682364       0.00000000
         -0.00000000       0.00000000      10.98436406
 =======================================================

       11             0.0021054249  (isotropic)


 =======================================================
   Intermediate polarization tensor
 =======================================================
   ISOTROPIC:       11.16502490
   ANISOTROPIC:      4.09915229
   Trace =          33.49507471
   Full Tensor:
          8.89386851      -0.00000000      -0.00000000
         -0.00000000      13.61681090       0.00000000
         -0.00000000       0.00000000      10.98439530
 =======================================================

       12             0.0003531207  (isotropic)


 =======================================================
   Intermediate polarization tensor
 =======================================================
   ISOTROPIC:       11.16495812
   ANISOTROPIC:      4.09930193
   Trace =          33.49487435
   Full Tensor:
          8.89367694      -0.00000000      -0.00000000
         -0.00000000      13.61680036       0.00000000
         -0.00000000       0.00000000      10.98439705
 =======================================================

       13             0.0000667864  (isotropic)


 =======================================================
   Intermediate polarization tensor
 =======================================================
   ISOTROPIC:       11.16488828
   ANISOTROPIC:      4.09946278
   Trace =          33.49466483
   Full Tensor:
          8.89347651      -0.00000000      -0.00000000
         -0.00000000      13.61679379       0.00000000
         -0.00000000       0.00000000      10.98439453
 =======================================================

       14             0.0000698422  (isotropic)


 =======================================================
   Intermediate polarization tensor
 =======================================================
   ISOTROPIC:       11.16484859
   ANISOTROPIC:      4.09955637
   Trace =          33.49454576
   Full Tensor:
          8.89336148      -0.00000000      -0.00000000
         -0.00000000      13.61679143       0.00000000
         -0.00000000       0.00000000      10.98439286
 =======================================================

       15             0.0000396891  (isotropic)


 =======================================================
   Intermediate polarization tensor
 =======================================================
   ISOTROPIC:       11.16483164
   ANISOTROPIC:      4.09959786
   Trace =          33.49449493
   Full Tensor:
          8.89331148      -0.00000000      -0.00000000
         -0.00000000      13.61679130       0.00000000
         -0.00000000       0.00000000      10.98439215
 =======================================================

       16             0.0000169437  (isotropic)


 =======================================================
   Intermediate polarization tensor
 =======================================================
   ISOTROPIC:       11.16482690
   ANISOTROPIC:      4.09960990
   Trace =          33.49448071
   Full Tensor:
          8.89329727      -0.00000000      -0.00000000
         -0.00000000      13.61679153       0.00000000
         -0.00000000       0.00000000      10.98439191
 =======================================================

       17             0.0000047390  (isotropic)


 =======================================================
   Intermediate polarization tensor
 =======================================================
   ISOTROPIC:       11.16482595
   ANISOTROPIC:      4.09961244
   Trace =          33.49447785
   Full Tensor:
          8.89329435      -0.00000000      -0.00000000
         -0.00000000      13.61679166       0.00000000
         -0.00000000       0.00000000      10.98439184
 =======================================================

       18             0.0000009527  (isotropic)


 =======================================================
   Intermediate polarization tensor
 =======================================================
   ISOTROPIC:       11.16482581
   ANISOTROPIC:      4.09961287
   Trace =          33.49447743
   Full Tensor:
          8.89329390      -0.00000000      -0.00000000
         -0.00000000      13.61679172       0.00000000
         -0.00000000       0.00000000      10.98439182
 =======================================================

       19             0.0000001409  (isotropic)


 =======================================================
   Intermediate polarization tensor
 =======================================================
   ISOTROPIC:       11.16482580
   ANISOTROPIC:      4.09961292
   Trace =          33.49447741
   Full Tensor:
          8.89329386      -0.00000000      -0.00000000
         -0.00000000      13.61679173       0.00000000
         -0.00000000       0.00000000      10.98439182
 =======================================================

       20             0.0000000067  (isotropic)


 =======================================================
   Intermediate polarization tensor
 =======================================================
   ISOTROPIC:       11.16482581
   ANISOTROPIC:      4.09961290
   Trace =          33.49447744
   Full Tensor:
          8.89329388      -0.00000000      -0.00000000
         -0.00000000      13.61679174       0.00000000
         -0.00000000       0.00000000      10.98439182
 =======================================================

       21             0.0000000090  (isotropic)


 =======================================================
   Intermediate polarization tensor
 =======================================================
   ISOTROPIC:       11.16482582
   ANISOTROPIC:      4.09961289
   Trace =          33.49447745
   Full Tensor:
          8.89329389      -0.00000000      -0.00000000
         -0.00000000      13.61679174       0.00000000
         -0.00000000       0.00000000      10.98439182
 =======================================================

       22             0.0000000050  (isotropic)


 =======================================================
   Intermediate polarization tensor
 =======================================================
   ISOTROPIC:       11.16482582
   ANISOTROPIC:      4.09961289
   Trace =          33.49447746
   Full Tensor:
          8.89329390      -0.00000000      -0.00000000
         -0.00000000      13.61679174       0.00000000
         -0.00000000       0.00000000      10.98439182
 =======================================================

       23             0.0000000013  (isotropic)


 =======================================================
   Intermediate polarization tensor
 =======================================================
   ISOTROPIC:       11.16482582
   ANISOTROPIC:      4.09961289
   Trace =          33.49447746
   Full Tensor:
          8.89329390      -0.00000000      -0.00000000
         -0.00000000      13.61679174       0.00000000
         -0.00000000       0.00000000      10.98439182
 =======================================================

       24             0.0000000000  (isotropic)



  ===== TDSCF converged after 24 iterations... =====


 TDSCF (1st order) time:  CPU       1.95 s  wall       1.96 s

               ======================================================= 
               ===                                                 === 
               ===                 Polarizability (a.u.)           === 
               ===                                                 === 
               ======================================================= 

   =================================================================================
   =   Frequency:            0.07731780 a.u.    =           2.10392438 eV          =
   =                                            =          35.22858161 x 10^-8 Hz  =
   =   Wavelength:         589.29964774 nm                                         =
   =   Wavenumber:       16969.29573660 cm^(-1)                                    =
   =================================================================================

      ISOTROPIC:     10.40207070          ANISOTROPIC:      3.96003135

      Trace =        31.20621211
      Full Tensor:

                      8.19440121           -0.00000000           -0.00000000
                     -0.00000000           12.75967150            0.00000000
                     -0.00000000            0.00000000           10.25213939


   =================================================================================
   =   Frequency:            0.15463560 a.u.    =           4.20784876 eV          =
   =                                            =          70.45716322 x 10^-8 Hz  =
   =   Wavelength:         294.64982387 nm                                         =
   =   Wavenumber:       33938.59147321 cm^(-1)                                    =
   =================================================================================

      ISOTROPIC:     11.16482582          ANISOTROPIC:      4.09961289

      Trace =        33.49447746
      Full Tensor:

                      8.89329390           -0.00000000           -0.00000000
                     -0.00000000           13.61679174            0.00000000
                     -0.00000000            0.00000000           10.98439182


  Dipole moment:
  --------------

                   Ex              Ey              Ez               Total

  (a.u.)       0.00000000     -0.00000000      0.82946283         0.82946283
  (Debye)      0.00000000     -0.00000000      2.10828670         2.10828670



 --- DONE ---


               ========================================================== 
               ===                                                    === 
               ===       Second Harmonic Generation     (a.u.)        === 
               ===                                                    === 
               ========================================================== 

   =================================================================================
   =   Frequency:            0.07731780 a.u.    =           2.10392438 eV          =
   =                                            =          35.22858161 x 10^-8 Hz  =
   =   Wavelength:         589.29964774 nm                                         =
   =   Wavenumber:       16969.29573660 cm^(-1)                                    =
   =================================================================================

      Full Tensor:

                          x                     y                     z

       xx             0.00000000           -0.00000000            1.92505358
       yy             0.00000000           -0.00000000          -31.33652886
       zz             0.00000000           -0.00000000          -13.92830863
       xy            -0.00000000            0.00000000            0.00000000
       xz            -1.80626084            0.00000000            0.00000000
       yz             0.00000000          -31.13504192           -0.00000000

  Averages:               x                     y                     z
                     -0.00000000            0.00000000           45.69300223
                     45.69300223




 --- DONE ---


WARNING: no symmetry was used (preliminary integrals)


      ======================================================== 
      =   LinK/CFMM integral contractions as described in:   = 
      =                                                      = 
      =            J. Kussmann and C. Ochsenfeld,            = 
      =            J. Chem. Phys. DOI: 10.1063/1.2794033     = 
      =            (2007)                                    = 
      ======================================================== 

 MO-PROP time:  CPU 1.96 s  wall 1.97 s 


 --------------------------------------------------------------

                    Orbital Energies (a.u.)
 --------------------------------------------------------------

 Alpha MOs
 -- Occupied --
-20.599  -1.295  -0.648  -0.559  -0.500
 -- Virtual --
  0.032   0.057   0.175   0.203   0.208   0.233   0.251   0.318
  0.375   0.383   0.413   0.518   0.605   0.627   0.783   0.900
  1.113   1.121   1.136   1.252   1.422   1.439   1.559   1.905
  1.939   2.029   2.207   2.275   2.327   2.678   2.949   3.666
  3.679   3.679   3.864   4.038
 --------------------------------------------------------------

          Ground-State Mulliken Net Atomic Charges

     Atom                 Charge (a.u.)
  ----------------------------------------
      1 O                    -0.569010
      2 H                     0.284505
      3 H                     0.284505
  ----------------------------------------
  Sum of atomic charges =     0.000000

 -----------------------------------------------------------------
                    Cartesian Multipole Moments
 -----------------------------------------------------------------
    Charge (ESU x 10^10)
                 0.0000
    Dipole Moment (Debye)
         X       0.0000      Y      -0.0000      Z       2.1083
       Tot       2.1083
    Quadrupole Moments (Debye-Ang)
        XX      -7.9075     XY       0.0000     YY      -3.9426
        XZ       0.0000     YZ      -0.0000     ZZ      -6.0413
    Octopole Moments (Debye-Ang^2)
       XXX       0.0000    XXY      -0.0000    XYY      -0.0000
       YYY      -0.0000    XXZ      -0.2866    XYZ       0.0000
       YYZ       1.6464    XZZ       0.0000    YZZ      -0.0000
       ZZZ      -0.0354
    Hexadecapole Moments (Debye-Ang^3)
      XXXX      -7.2631   XXXY       0.0000   XXYY      -2.9056
      XYYY       0.0000   YYYY      -7.0688   XXXZ       0.0000
      XXYZ      -0.0000   XYYZ       0.0000   YYYZ      -0.0000
      XXZZ      -2.7207   XYZZ       0.0000   YYZZ      -1.8091
      XZZZ       0.0000   YZZZ      -0.0000   ZZZZ      -8.3774
 -----------------------------------------------------------------
Archival summary:
1\1\copper\SP\HF\BasisUnspecified\12\eric\MonDec1821:18:452017MonDec1821:18:452017\0\\#,HF,BasisUnspecified,\\0,1\O\H,1,1.1\H,1,1.1,2,104\\HF=-76.003354\\@

 Total job time:  2.25s(wall), 2.23s(cpu) 
 Mon Dec 18 21:18:45 2017

        *************************************************************
        *                                                           *
        *  Thank you very much for using Q-Chem.  Have a nice day.  *
        *                                                           *
        *************************************************************


