[Molden Format]
[GTO]
    1 0
 s   6 1.00
      16.1195750    0.1543289700
       2.9362007    0.5353281400
       0.7946505    0.4446345400
       0.6362897    0.0000000000
       0.1478601    0.0000000000
       0.0480887    0.0000000000
 s   6 1.00
      16.1195750    0.0000000000
       2.9362007    0.0000000000
       0.7946505    0.0000000000
       0.6362897   -0.0999672300
       0.1478601    0.3995128300
       0.0480887    0.7001154700
 p   3 1.00
       0.6362897    0.1559162700
       0.1478601    0.6076837200
       0.0480887    0.3919573900

    2 0
 s   3 1.00
       3.4252509    0.1543289700
       0.6239137    0.5353281400
       0.1688554    0.4446345400

[SCFCONV]
scf-first  1  THROUGH   7
       -7.8082808920
       -7.8583188232
       -7.8619821905
       -7.8620269135
       -7.8620269565
       -7.8620269609
       -7.8620269615
[TITLE]
*** Dalton interface to Molden, wave function type : HF            19Feb17   20:
[Atoms] AU
Li         1     3         0.0000000000         0.0000000000         0.000000000
H          2     1         0.0000000000         0.0000000000         3.013924196
[5D7F]
[9G]
[MO]
Sym= A
Ene=   -2.3486
Spin= Alpha
Occup=  2.0000
    1       -0.991245
    2       -0.032678
    5        0.006347
    6       -0.004470
Sym= A
Ene=   -0.2857
Spin= Alpha
Occup=  2.0000
    1        0.167424
    2       -0.454793
    5       -0.346200
    6       -0.548781
Sym= A
Ene=    0.0783
Spin= Alpha
Occup=  0.0000
    1        0.209978
    2       -0.799617
    5        0.612138
    6        0.139793
Sym= A
Ene=    0.1639
Spin= Alpha
Occup=  0.0000
    3        0.997100
    4       -0.076100
Sym= A
Ene=    0.1639
Spin= Alpha
Occup=  0.0000
    3        0.076100
    4        0.997100
Sym= A
Ene=    0.5491
Spin= Alpha
Occup=  0.0000
    1       -0.092838
    2        0.704725
    5        0.981001
    6       -1.187374
[End of Molden output from Dalton]
