[Molden Format]
[GTO]
    1 0
 s   6 1.00
      16.1195750    0.1543289700
       2.9362007    0.5353281400
       0.7946505    0.4446345400
       0.6362897    0.0000000000
       0.1478601    0.0000000000
       0.0480887    0.0000000000
 s   6 1.00
      16.1195750    0.0000000000
       2.9362007    0.0000000000
       0.7946505    0.0000000000
       0.6362897   -0.0999672300
       0.1478601    0.3995128300
       0.0480887    0.7001154700
 p   3 1.00
       0.6362897    0.1559162700
       0.1478601    0.6076837200
       0.0480887    0.3919573900

    2 0
 s   3 1.00
       3.4252509    0.1543289700
       0.6239137    0.5353281400
       0.1688554    0.4446345400

[SCFCONV]
scf-first  1  THROUGH   7
       -7.8082808920
       -7.8583188232
       -7.8619821905
       -7.8620269135
       -7.8620269565
       -7.8620269609
       -7.8620269615
