 argument  1 = nwchem_ord_orbeta_0.001.in
                                         
                                         


              Northwest Computational Chemistry Package (NWChem) 6.6
              ------------------------------------------------------


                    Environmental Molecular Sciences Laboratory
                       Pacific Northwest National Laboratory
                                Richland, WA 99352

                              Copyright (c) 1994-2015
                       Pacific Northwest National Laboratory
                            Battelle Memorial Institute

             NWChem is an open-source computational chemistry package
                        distributed under the terms of the
                      Educational Community License (ECL) 2.0
             A copy of the license is included with this distribution
                              in the LICENSE.TXT file

                                  ACKNOWLEDGMENT
                                  --------------

            This software and its documentation were developed at the
            EMSL at Pacific Northwest National Laboratory, a multiprogram
            national laboratory, operated for the U.S. Department of Energy
            by Battelle under Contract Number DE-AC05-76RL01830. Support
            for this work was provided by the Department of Energy Office
            of Biological and Environmental Research, Office of Basic
            Energy Sciences, and the Office of Advanced Scientific Computing.


           Job information
           ---------------

    hostname        = copper
    program         = nwchem
    date            = Tue Apr  4 15:58:21 2017

    compiled        = Sun_Feb_14_13:23:17_2016
    source          = /build/nwchem-XLLp2O/nwchem-6.6+r27746
    nwchem branch   = 6.6
    nwchem revision = 27746
    ga revision     = 10594
    input           = nwchem_ord_orbeta_0.001.in
    prefix          = nwchem_ord_orbeta_0.001.
    data base       = ./nwchem_ord_orbeta_0.001.db
    status          = startup
    nproc           =        1
    time left       =     -1s



           Memory information
           ------------------

    heap     =   13107194 doubles =    100.0 Mbytes
    stack    =   13107199 doubles =    100.0 Mbytes
    global   =   26214400 doubles =    200.0 Mbytes (distinct from heap & stack)
    total    =   52428793 doubles =    400.0 Mbytes
    verify   = yes
    hardfail = no 


           Directory information
           ---------------------

  0 permanent = .
  0 scratch   = .




                                NWChem Input Module
                                -------------------



 Scaling coordinates for geometry "geometry" by  1.889725989
 (inverse scale =  0.529177249)

 Turning off AUTOSYM since
 SYMMETRY directive was detected!



                             Geometry "geometry" -> ""
                             -------------------------

 Output coordinates in angstroms (scale by  1.889725989 to convert to a.u.)

  No.       Tag          Charge          X              Y              Z
 ---- ---------------- ---------- -------------- -------------- --------------
    1 C                    6.0000    -0.00082866    -0.00044931    -0.00032412
    2 H                    1.0000     0.00054194    -0.00055105     1.08812231
    3 B                    5.0000     0.76140420     0.00009124    -1.24023040
    4 H                    1.0000     1.55078501    -0.32506411    -2.06829352
    5 C                    6.0000    -0.56775152     0.96965162    -0.96827854
    6 H                    1.0000    -0.67876440     2.02622931    -0.67911656
    7 H                    1.0000    -1.33081617     0.67159311    -1.71521660

      Atomic Mass 
      ----------- 

      C                 12.000000
      H                  1.007825
      B                 11.009310


 Effective nuclear repulsion energy (a.u.)      55.1334855264

            Nuclear Dipole moment (a.u.) 
            ----------------------------
        X                 Y               Z
 ---------------- ---------------- ----------------
    -0.1185117494    15.4728446905   -29.0777283144


            XYZ format geometry
            -------------------
     7
 geometry
 C                    -0.00082866    -0.00044931    -0.00032412
 H                     0.00054194    -0.00055105     1.08812231
 B                     0.76140420     0.00009124    -1.24023040
 H                     1.55078501    -0.32506411    -2.06829352
 C                    -0.56775152     0.96965162    -0.96827854
 H                    -0.67876440     2.02622931    -0.67911656
 H                    -1.33081617     0.67159311    -1.71521660

 ==============================================================================
                                internuclear distances
 ------------------------------------------------------------------------------
       center one      |      center two      | atomic units |  angstroms
 ------------------------------------------------------------------------------
    2 H                |   1 C                |     2.05687  |     1.08845
    3 B                |   1 C                |     2.75042  |     1.45546
    4 H                |   3 B                |     2.24753  |     1.18934
    5 C                |   1 C                |     2.80256  |     1.48305
    5 C                |   3 B                |     3.15118  |     1.66753
    6 H                |   5 C                |     2.08067  |     1.10104
    7 H                |   5 C                |     2.09497  |     1.10861
 ------------------------------------------------------------------------------
                         number of included internuclear distances:          7
 ==============================================================================



 ==============================================================================
                                 internuclear angles
 ------------------------------------------------------------------------------
        center 1       |       center 2       |       center 3       |  degrees
 ------------------------------------------------------------------------------
    2 H                |   1 C                |   3 B                |   148.35
    2 H                |   1 C                |   5 C                |   130.78
    3 B                |   1 C                |   5 C                |    69.14
    1 C                |   3 B                |   4 H                |   160.15
    3 B                |   1 C                |   5 C                |    69.14
    4 H                |   3 B                |   5 C                |   143.28
    5 C                |   1 C                |   3 B                |    69.14
    1 C                |   5 C                |   6 H                |   119.66
    1 C                |   5 C                |   7 H                |   121.80
    3 B                |   5 C                |   6 H                |   132.93
    3 B                |   5 C                |   7 H                |   106.41
    6 H                |   5 C                |   7 H                |   111.44
 ------------------------------------------------------------------------------
                            number of included internuclear angles:         12
 ==============================================================================





 Summary of "ao basis" -> "" (cartesian)
 ------------------------------------------------------------------------------
       Tag                 Description            Shells   Functions and Types
 ---------------- ------------------------------  ------  ---------------------
 *                           sto-3g                   on all atoms 


  xc_inp: hfexch multiplicative factor not found.
                              NWChem Property Module
                              ----------------------



                                 NWChem DFT Module
                                 -----------------


                      Basis "ao basis" -> "ao basis" (cartesian)
                      -----
  C (Carbon)
  ----------
            Exponent  Coefficients 
       -------------- ---------------------------------------------------------
  1 S  7.16168370E+01  0.154329
  1 S  1.30450960E+01  0.535328
  1 S  3.53051220E+00  0.444635

  2 S  2.94124940E+00 -0.099967
  2 S  6.83483100E-01  0.399513
  2 S  2.22289900E-01  0.700115

  3 P  2.94124940E+00  0.155916
  3 P  6.83483100E-01  0.607684
  3 P  2.22289900E-01  0.391957

  H (Hydrogen)
  ------------
            Exponent  Coefficients 
       -------------- ---------------------------------------------------------
  1 S  3.42525091E+00  0.154329
  1 S  6.23913730E-01  0.535328
  1 S  1.68855400E-01  0.444635

  B (Boron)
  ---------
            Exponent  Coefficients 
       -------------- ---------------------------------------------------------
  1 S  4.87911130E+01  0.154329
  1 S  8.88736220E+00  0.535328
  1 S  2.40526700E+00  0.444635

  2 S  2.23695610E+00 -0.099967
  2 S  5.19820500E-01  0.399513
  2 S  1.69061800E-01  0.700115

  3 P  2.23695610E+00  0.155916
  3 P  5.19820500E-01  0.607684
  3 P  1.69061800E-01  0.391957



 Summary of "ao basis" -> "ao basis" (cartesian)
 ------------------------------------------------------------------------------
       Tag                 Description            Shells   Functions and Types
 ---------------- ------------------------------  ------  ---------------------
 C                           sto-3g                  3        5   2s1p
 H                           sto-3g                  1        1   1s
 B                           sto-3g                  3        5   2s1p




 Summary of "ao basis" -> "ao basis" (cartesian)
 ------------------------------------------------------------------------------
       Tag                 Description            Shells   Functions and Types
 ---------------- ------------------------------  ------  ---------------------
 C                           sto-3g                  3        5   2s1p
 H                           sto-3g                  1        1   1s
 B                           sto-3g                  3        5   2s1p


  Caching 1-el integrals 

            General Information
            -------------------
          SCF calculation type: DFT
          Wavefunction type:  closed shell.
          No. of atoms     :     7
          No. of electrons :    20
           Alpha electrons :    10
            Beta electrons :    10
          Charge           :     1
          Spin multiplicity:     1
          Use of symmetry is: off; symmetry adaption is: off
          Maximum number of iterations:  30
          This is a Direct SCF calculation.
          AO basis - number of functions:    19
                     number of shells:    13
          Convergence on energy requested: 1.00D-06
          Convergence on density requested: 1.00D-05
          Convergence on gradient requested: 5.00D-04

              XC Information
              --------------
                     Hartree-Fock (Exact) Exchange  1.000          

          Convergence Information
          -----------------------
          Convergence aids based upon iterative change in 
          total energy or number of iterations. 
          Levelshifting, if invoked, occurs when the 
          HOMO/LUMO gap drops below (HL_TOL): 1.00D-02
          DIIS, if invoked, will attempt to extrapolate 
          using up to (NFOCK): 10 stored Fock matrices.

                    Damping( 0%)  Levelshifting(0.5)       DIIS
                  --------------- ------------------- ---------------
          dE  on:    start            ASAP                start   
          dE off:    2 iters         30 iters            30 iters 


      Screening Tolerance Information
      -------------------------------
          Density screening/tol_rho: 1.00D-10
          AO Gaussian exp screening on grid/accAOfunc:  14
          CD Gaussian exp screening on grid/accCDfunc:  20
          XC Gaussian exp screening on grid/accXCfunc:  20
          Schwarz screening/accCoul: 1.00D-08


      Superposition of Atomic Density Guess
      -------------------------------------

 Sum of atomic energies:        -100.38058866

 Renormalizing density from      21.00 to     20

      Non-variational initial energy
      ------------------------------

 Total energy =     -97.603774
 1-e energy   =    -234.054064
 2-e energy   =      81.316805
 HOMO         =      -0.494739
 LUMO         =      -0.357204

   Time after variat. SCF:      0.1
   Time prior to 1st pass:      0.1

           Memory utilization after 1st SCF pass: 
           Heap Space remaining (MW):       13.11            13105850
          Stack Space remaining (MW):       13.11            13106900

   convergence    iter        energy       DeltaE   RMS-Dens  Diis-err    time
 ---------------- ----- ----------------- --------- --------- ---------  ------
 d= 0,ls=0.0,diis     1   -101.0774355044 -1.56D+02  2.89D-02  1.66D-01     0.2
 d= 0,ls=0.0,diis     2   -101.1139195518 -3.65D-02  7.79D-03  1.35D-02     0.2
 d= 0,ls=0.0,diis     3   -101.1174836598 -3.56D-03  3.69D-03  1.86D-03     0.3
 d= 0,ls=0.0,diis     4   -101.1181723086 -6.89D-04  1.57D-03  2.20D-04     0.3
 d= 0,ls=0.0,diis     5   -101.1183353554 -1.63D-04  1.66D-03  1.12D-04     0.3
  Resetting Diis
 d= 0,ls=0.0,diis     6   -101.1184232096 -8.79D-05  6.58D-04  1.12D-05     0.4
 d= 0,ls=0.0,diis     7   -101.1184373515 -1.41D-05  1.31D-04  2.29D-06     0.4
 d= 0,ls=0.0,diis     8   -101.1184389482 -1.60D-06  2.06D-04  9.46D-07     0.5
 d= 0,ls=0.0,diis     9   -101.1184402414 -1.29D-06  6.37D-05  2.12D-07     0.5
 d= 0,ls=0.0,diis    10   -101.1184403892 -1.48D-07  5.04D-05  3.87D-08     0.5
 d= 0,ls=0.0,diis    11   -101.1184404329 -4.37D-08  3.23D-06  6.15D-10     0.6


         Total DFT energy =     -101.118440432885
      One electron energy =     -238.658864993936
           Coulomb energy =       97.689524089872
    Exchange-Corr. energy =      -15.282585055267
 Nuclear repulsion energy =       55.133485526447

 Numeric. integr. density =        0.000000000000

     Total iterative time =      0.5s



                       DFT Final Molecular Orbital Analysis
                       ------------------------------------

 Vector    1  Occ=2.000000D+00  E=-1.143044D+01
              MO Center= -7.6D-04, -2.7D-04, -5.1D-04, r^2= 2.7D-02
   Bfn.  Coefficient  Atom+Function         Bfn.  Coefficient  Atom+Function  
  ----- ------------  ---------------      ----- ------------  ---------------
     1      0.992544  1 C  s          

 Vector    2  Occ=2.000000D+00  E=-1.135806D+01
              MO Center= -5.7D-01,  9.7D-01, -9.7D-01, r^2= 2.7D-02
   Bfn.  Coefficient  Atom+Function         Bfn.  Coefficient  Atom+Function  
  ----- ------------  ---------------      ----- ------------  ---------------
    13      0.992165  5 C  s          

 Vector    3  Occ=2.000000D+00  E=-7.765504D+00
              MO Center=  7.6D-01,  2.2D-04, -1.2D+00, r^2= 4.0D-02
   Bfn.  Coefficient  Atom+Function         Bfn.  Coefficient  Atom+Function  
  ----- ------------  ---------------      ----- ------------  ---------------
     7      0.991084  3 B  s          

 Vector    4  Occ=2.000000D+00  E=-1.341215D+00
              MO Center= -1.5D-01,  4.2D-01, -5.9D-01, r^2= 1.0D+00
   Bfn.  Coefficient  Atom+Function         Bfn.  Coefficient  Atom+Function  
  ----- ------------  ---------------      ----- ------------  ---------------
     2      0.463698  1 C  s                 14      0.417596  5 C  s          
     1     -0.170008  1 C  s                 13     -0.158423  5 C  s          
     8      0.154139  3 B  s          

 Vector    5  Occ=2.000000D+00  E=-1.046702D+00
              MO Center= -3.6D-01,  5.7D-01, -4.8D-01, r^2= 2.2D+00
   Bfn.  Coefficient  Atom+Function         Bfn.  Coefficient  Atom+Function  
  ----- ------------  ---------------      ----- ------------  ---------------
    14     -0.488681  5 C  s                  2      0.479465  1 C  s          
     6      0.233242  2 H  s                 19     -0.219528  7 H  s          
    18     -0.182882  6 H  s                 13      0.150258  5 C  s          

 Vector    6  Occ=2.000000D+00  E=-9.490153D-01
              MO Center= -1.3D-01,  4.1D-01, -1.7D-01, r^2= 2.0D+00
   Bfn.  Coefficient  Atom+Function         Bfn.  Coefficient  Atom+Function  
  ----- ------------  ---------------      ----- ------------  ---------------
     5      0.453822  1 C  pz                 6      0.303452  2 H  s          
     8     -0.292991  3 B  s                 16      0.226355  5 C  py         
    18      0.208137  6 H  s                 14      0.184371  5 C  s          
    15     -0.160741  5 C  px         

 Vector    7  Occ=2.000000D+00  E=-8.383174D-01
              MO Center=  3.5D-01,  1.6D-01, -1.2D+00, r^2= 2.5D+00
   Bfn.  Coefficient  Atom+Function         Bfn.  Coefficient  Atom+Function  
  ----- ------------  ---------------      ----- ------------  ---------------
     8      0.353194  3 B  s                 17     -0.332127  5 C  pz         
    12      0.325231  4 H  s                 19      0.263435  7 H  s          
     5      0.212488  1 C  pz                 4     -0.202771  1 C  py         
    15     -0.181398  5 C  px                11     -0.175766  3 B  pz         
     6      0.160723  2 H  s                  9      0.157902  3 B  px         

 Vector    8  Occ=2.000000D+00  E=-8.171014D-01
              MO Center= -1.4D-01,  7.4D-01, -1.2D+00, r^2= 2.4D+00
   Bfn.  Coefficient  Atom+Function         Bfn.  Coefficient  Atom+Function  
  ----- ------------  ---------------      ----- ------------  ---------------
    16      0.403428  5 C  py                18      0.307860  6 H  s          
    19     -0.301645  7 H  s                  8      0.285714  3 B  s          
    12      0.249180  4 H  s                 15      0.230346  5 C  px         
    17      0.215088  5 C  pz                 3      0.154695  1 C  px         
     9      0.155187  3 B  px         

 Vector    9  Occ=2.000000D+00  E=-7.330578D-01
              MO Center=  2.2D-01,  2.3D-01, -7.5D-01, r^2= 2.1D+00
   Bfn.  Coefficient  Atom+Function         Bfn.  Coefficient  Atom+Function  
  ----- ------------  ---------------      ----- ------------  ---------------
     3      0.486883  1 C  px                11      0.358447  3 B  pz         
     4     -0.314699  1 C  py                16      0.302072  5 C  py         
    12     -0.269529  4 H  s                 17     -0.235707  5 C  pz         
    18      0.181536  6 H  s          

 Vector   10  Occ=2.000000D+00  E=-6.430810D-01
              MO Center=  6.5D-04,  4.2D-01, -8.3D-01, r^2= 1.7D+00
   Bfn.  Coefficient  Atom+Function         Bfn.  Coefficient  Atom+Function  
  ----- ------------  ---------------      ----- ------------  ---------------
    15      0.447735  5 C  px                10      0.430586  3 B  py         
    17     -0.340283  5 C  pz                 5      0.292996  1 C  pz         
     2     -0.256866  1 C  s                  4      0.231523  1 C  py         
     6      0.190212  2 H  s                  3      0.174799  1 C  px         
    18     -0.157093  6 H  s          

 Vector   11  Occ=0.000000D+00  E=-2.015533D-01
              MO Center=  3.8D-02,  2.0D-01, -6.2D-01, r^2= 1.8D+00
   Bfn.  Coefficient  Atom+Function         Bfn.  Coefficient  Atom+Function  
  ----- ------------  ---------------      ----- ------------  ---------------
     4      0.550096  1 C  py                 3      0.396449  1 C  px         
     9      0.390733  3 B  px                11      0.291027  3 B  pz         
    15     -0.284617  5 C  px                19      0.284722  7 H  s          
    17      0.196552  5 C  pz                18     -0.191571  6 H  s          

 Vector   12  Occ=0.000000D+00  E= 2.130483D-02
              MO Center=  5.0D-01, -3.1D-02, -8.6D-01, r^2= 1.4D+00
   Bfn.  Coefficient  Atom+Function         Bfn.  Coefficient  Atom+Function  
  ----- ------------  ---------------      ----- ------------  ---------------
    10      0.685773  3 B  py                 9      0.544133  3 B  px         
     4     -0.480179  1 C  py                 3     -0.372804  1 C  px         
     2      0.248042  1 C  s                 11      0.229159  3 B  pz         
     6     -0.184762  2 H  s          

 Vector   13  Occ=0.000000D+00  E= 1.794732D-01
              MO Center=  1.4D-01,  4.7D-01, -1.1D+00, r^2= 1.6D+00
   Bfn.  Coefficient  Atom+Function         Bfn.  Coefficient  Atom+Function  
  ----- ------------  ---------------      ----- ------------  ---------------
    10      0.598904  3 B  py                15     -0.599433  5 C  px         
    11     -0.449646  3 B  pz                17      0.449054  5 C  pz         
     3      0.425879  1 C  px                 9     -0.409616  3 B  px         
     8      0.302384  3 B  s                 14     -0.247151  5 C  s          
     4     -0.225128  1 C  py                18      0.206807  6 H  s          

 Vector   14  Occ=0.000000D+00  E= 2.623603D-01
              MO Center=  7.1D-01, -9.0D-02, -6.7D-01, r^2= 2.2D+00
   Bfn.  Coefficient  Atom+Function         Bfn.  Coefficient  Atom+Function  
  ----- ------------  ---------------      ----- ------------  ---------------
     8      1.129400  3 B  s                  2     -0.961698  1 C  s          
    12     -0.667426  4 H  s                  6      0.573255  2 H  s          
     3     -0.406790  1 C  px                11      0.332487  3 B  pz         
     7     -0.209856  3 B  s                 15     -0.196761  5 C  px         
    19     -0.174537  7 H  s                  1      0.150998  1 C  s          

 Vector   15  Occ=0.000000D+00  E= 3.290303D-01
              MO Center= -3.0D-01,  4.4D-01, -6.4D-01, r^2= 2.0D+00
   Bfn.  Coefficient  Atom+Function         Bfn.  Coefficient  Atom+Function  
  ----- ------------  ---------------      ----- ------------  ---------------
    14      1.196836  5 C  s                  2     -0.715254  1 C  s          
     8     -0.532421  3 B  s                 19     -0.532969  7 H  s          
     6      0.486508  2 H  s                  4     -0.477729  1 C  py         
    16     -0.422871  5 C  py                 3      0.385389  1 C  px         
    12      0.322319  4 H  s                 18     -0.277739  6 H  s          

 Vector   16  Occ=0.000000D+00  E= 3.912468D-01
              MO Center=  3.5D-02,  5.8D-01, -5.2D-01, r^2= 3.2D+00
   Bfn.  Coefficient  Atom+Function         Bfn.  Coefficient  Atom+Function  
  ----- ------------  ---------------      ----- ------------  ---------------
    14      0.794101  5 C  s                 18     -0.755518  6 H  s          
     6     -0.711714  2 H  s                  5      0.639135  1 C  pz         
    12     -0.614194  4 H  s                  8      0.504796  3 B  s          
    16      0.312134  5 C  py                11     -0.309125  3 B  pz         
     2      0.252462  1 C  s                 10     -0.221875  3 B  py         

 Vector   17  Occ=0.000000D+00  E= 4.449495D-01
              MO Center= -8.2D-01,  7.6D-01, -1.2D+00, r^2= 1.3D+00
   Bfn.  Coefficient  Atom+Function         Bfn.  Coefficient  Atom+Function  
  ----- ------------  ---------------      ----- ------------  ---------------
    19      1.058370  7 H  s                 17      0.852182  5 C  pz         
    15      0.702896  5 C  px                 2     -0.428336  1 C  s          
     4     -0.405091  1 C  py                14     -0.235544  5 C  s          
     6      0.200752  2 H  s          

 Vector   18  Occ=0.000000D+00  E= 5.001433D-01
              MO Center= -3.4D-01,  9.6D-01, -5.7D-01, r^2= 2.1D+00
   Bfn.  Coefficient  Atom+Function         Bfn.  Coefficient  Atom+Function  
  ----- ------------  ---------------      ----- ------------  ---------------
    16      0.997013  5 C  py                18     -0.912019  6 H  s          
     5     -0.604811  1 C  pz                 6      0.555813  2 H  s          
     9     -0.338519  3 B  px                15     -0.323941  5 C  px         
    12      0.266550  4 H  s                 10      0.212304  3 B  py         
     3     -0.181134  1 C  px         

 Vector   19  Occ=0.000000D+00  E= 7.526215D-01
              MO Center=  5.9D-01, -4.1D-03, -9.3D-01, r^2= 1.6D+00
   Bfn.  Coefficient  Atom+Function         Bfn.  Coefficient  Atom+Function  
  ----- ------------  ---------------      ----- ------------  ---------------
    11      1.029792  3 B  pz                 5      0.941999  1 C  pz         
     9     -0.886678  3 B  px                12      0.791202  4 H  s          
     2     -0.614274  1 C  s                  6     -0.442950  2 H  s          
     8      0.362847  3 B  s                  3     -0.341612  1 C  px         
    17      0.221039  5 C  pz                10      0.208096  3 B  py         


 center of mass
 --------------
 x =   0.05313480 y =   0.67873222 z =  -1.38814385

 moments of inertia (a.u.)
 ------------------
          96.412334679589          34.977367292762          12.355602347817
          34.977367292762         110.509519535773          10.136043015291
          12.355602347817          10.136043015291          92.268757306654

     Multipole analysis of the density
     ---------------------------------

     L   x y z        total         alpha         beta         nuclear
     -   - - -        -----         -----         ----         -------
     0   0 0 0      1.000000    -10.000000    -10.000000     21.000000

     1   1 0 0     -0.035048      0.041732      0.041732     -0.118512
     1   0 1 0      0.659787     -7.406529     -7.406529     15.472845
     1   0 0 1     -1.207072     13.935328     13.935328    -29.077728

     2   2 0 0     -9.862448    -21.839256    -21.839256     33.816064
     2   1 1 0     -0.624114     10.536804     10.536804    -21.697721
     2   1 0 1      0.374418      3.555477      3.555477     -6.736537
     2   0 2 0    -10.142932    -23.468976    -23.468976     36.795020
     2   0 1 1     -0.791795     12.978037     12.978037    -26.747869
     2   0 0 2     -7.432257    -43.321470    -43.321470     79.210682

 *** CALLING NEW AORESP DRIVER FOR CLOSED AND OPEN SHELLS ***
 Entering AOResponse driver routine


--------------------------------------------------------------------------------

          ****************
          *** RESPONSE ***
          ****************

 Response module for NWChem and dynamic CPKS solver
 developed by J. Autschbach and coworkers, SUNY Buffalo
 The methodology used in this program is described in 
 ChemPhysChem 12 (2011), 3224-3235 (main reference)
 J. Chem. Phys. 123 (2005), 114103
 J. Chem. Phys. 122 (2005), 224115
 J. Chem. Phys. 122 (2005), 074105
 Comp. Lett. 3 (2007), 131-150 (contact JA for a copy)
 Please cite this work in publications based on results
 obtained with this code. Thank you!

 For extension of response module to open shell
 calculations please acknowledge:
 F. Aquino, Northwestern University, Schatz Rsrch Group
 The update to the methodology is described in
 J. Phys. Chem. A 118 (2014) 517-525


 Computing some B-field data ...

          ------------------------------------------------------
          Calculating magnetic field perturbed MO vectors (FIAO)
          ------------------------------------------------------

nocc =( 10,  0) nopen=(  0,  1) nclos=( 10,***) nvirt=(  9,  1) scftyp=RHF ntot= 90

 dft_CPHF_read:Read aoresponse g_rhs data from ./nwchem_ord_orbeta_0.001.aoresp_fiao_b1

 dft_CPHF_read: failed to open./nwchem_ord_orbeta_0.001.aoresp_fiao_b1
                                NWChem CPHF Module
                                ------------------


  scftype          =     RHF 
  nclosed          =       10
  nopen            =        0
  variables        =       90
  # of vectors     =        3
  tolerance        = 0.10D-07
  level shift      = 0.00D+00
  max iterations   =       50
  max subspace     =       30

 SCF residual:    8.6411744303547909E-006


Iterative solution of linear equations
  No. of variables       90
  No. of equations        3
  Maximum subspace       30
        Iterations       50
       Convergence  1.0D-08
        Start time      1.5


   iter   nsub   residual    time
   ----  ------  --------  ---------
     1      3    1.10D+00       1.6
     2      6    4.42D-01       1.8
     3      9    2.67D-01       1.9
     4     12    5.22D-02       2.0
     5     15    3.65D-03       2.2
     6     18    7.40D-04       2.3
     7     21    1.21D-04       2.4
     8     24    2.15D-05       2.5
     9     27    1.69D-06       2.7
    10     30    2.58D-07       2.8
    11     30    3.89D-08       2.9
    12     30    1.58D-08       3.1
    13     30    6.29D-09       3.2

 dft_CPHF_write: Wrote aoresponse g_rhs data to ./nwchem_ord_orbeta_0.001.aoresp_fiao_b1


          -----------------------------------------------
          Solving response equations for perturbing field
          -----------------------------------------------

 number of frequencies:     1
 frequency in a.u.:  0.1000000E-02
 Perturbing field: electric
 Using Dipole Length Gauge

 Setting up CPKS with frequency omega =      0.00100000 a.u.


                            NWChem Dynamic CPHF Module
                            --------------------------


    scftype = RHF 
    nclosed =   10
      nopen =    0
  variables =      180
  num. vecs =        3
  tolerance =   1.0D-08
  max. iter =   50

 SCF residual:    8.6411744303547909E-006


Iterative solution of linear equations
  No. of variables      180
  No. of equations        3
  Maximum subspace       30
       Convergence  1.0D-08
        Start time      3.3


   iter   nsub   residual    time 
   ----  ------  --------  --------- 
     1      3    1.17D+00       3.6
     2      6    5.11D-01       3.8
     3      9    1.88D-01       4.1
     4     12    2.59D-02       4.3
     5     15    6.86D-03       4.6
     6     18    1.56D-03       4.8
     7     21    5.03D-04       5.1
     8     24    2.15D-04       5.4
     9     27    3.63D-05       5.6
    10     30    1.02D-05       5.9
    11     30    1.79D-06       6.1
    12     30    4.73D-07       6.4
    13     30    7.80D-08       6.7
    14     30    2.33D-08       6.9
    15     30    1.13D-08       7.2
    16     30    5.72D-09       7.4

 Optical Rotation: will calculate Beta directly, not G'

 Electric Dipole Response Matrix (nonzero elements):

              1        2        3      
    1   16.9283  -4.8001  -0.7875
    2   -4.8001  15.3009  -2.7825
    3   -0.7875  -2.7825  19.3957

 DFT Linear Response polarizability / au 
 Frequency  =       0.0010000 / au
 Wavelength =   45563.3530000 / nm
              X              Y              Z
 -----------------------------------------------
 X      16.9283289     -4.8000606     -0.7875053
 Y      -4.8000606     15.3008509     -2.7825269
 Z      -0.7875053     -2.7825269     19.3957197
 -----------------------------------------------
 Eigenvalues =      21.7994674     10.4579587     19.3674734
 Isotropic   =      17.2082998
 Anisotropic =       8.4444038
 -----------------------------------------------

 average:    17.208299835588974       + I    0.0000000000000000     

 Magnetic Dipole Response Matrix (nonzero elements):
 Optical rotation tensor Beta

              1        2        3      
    1    0.0684  -9.8683  -1.1279
    2    8.8646  -7.1416   6.5276
    3    0.9846   5.6305 -12.6550
 average:   -6.5760525496251017       + I    0.0000000000000000     

 Principal components and PAS (Real part)
              -18.4868
               -9.3142
                8.0728
 ---------------------
 average:      -6.5761

              1        2        3      
    1    0.3109   0.5592   0.7685
    2    0.6625   0.4522  -0.5971
    3   -0.6814   0.6948  -0.2299
 Exiting AOResponse driver routine

 Task  times  cpu:        2.9s     wall:        7.4s
 Summary of allocated global arrays
-----------------------------------
  No active global arrays



                         GA Statistics for process    0
                         ------------------------------

       create   destroy   get      put      acc     scatter   gather  read&inc
calls: 1698     1698     1.32e+05 1.65e+04 8.68e+04  983        0     1727     
number of processes/call 1.00e+00 1.00e+00 1.00e+00 0.00e+00 0.00e+00
bytes total:             2.97e+07 6.37e+06 1.72e+07 1.52e+02 0.00e+00 1.38e+04
bytes remote:            0.00e+00 0.00e+00 0.00e+00 0.00e+00 0.00e+00 0.00e+00
Max memory consumed for GA by this process: 210512 bytes
MA_summarize_allocated_blocks: starting scan ...
MA_summarize_allocated_blocks: scan completed: 0 heap blocks, 0 stack blocks
MA usage statistics:

	allocation statistics:
					      heap	     stack
					      ----	     -----
	current number of blocks	         0	         0
	maximum number of blocks	        24	        37
	current total bytes		         0	         0
	maximum total bytes		     80152	  22511192
	maximum total K-bytes		        81	     22512
	maximum total M-bytes		         1	        23


                                NWChem Input Module
                                -------------------





                                     CITATION
                                     --------
                Please cite the following reference when publishing
                           results obtained with NWChem:

                 M. Valiev, E.J. Bylaska, N. Govind, K. Kowalski,
              T.P. Straatsma, H.J.J. van Dam, D. Wang, J. Nieplocha,
                        E. Apra, T.L. Windus, W.A. de Jong
                 "NWChem: a comprehensive and scalable open-source
                  solution for large scale molecular simulations"
                      Comput. Phys. Commun. 181, 1477 (2010)
                           doi:10.1016/j.cpc.2010.04.018

                                      AUTHORS
                                      -------
          E. Apra, E. J. Bylaska, W. A. de Jong, N. Govind, K. Kowalski,
       T. P. Straatsma, M. Valiev, H. J. J. van Dam, D. Wang, T. L. Windus,
        J. Hammond, J. Autschbach, K. Bhaskaran-Nair, J. Brabec, K. Lopata,
       S. A. Fischer, S. Krishnamoorthy, W. Ma, M. Klemm, O. Villa, Y. Chen,
    V. Anisimov, F. Aquino, S. Hirata, M. T. Hackler, T. Risthaus, M. Malagoli,
       A. Marenich, A. Otero-de-la-Roza, J. Mullin, P. Nichols, R. Peverati,
     J. Pittner, Y. Zhao, P.-D. Fan, A. Fonari, M. Williamson, R. J. Harrison,
       J. R. Rehr, M. Dupuis, D. Silverstein, D. M. A. Smith, J. Nieplocha,
        V. Tipparaju, M. Krishnan, B. E. Van Kuiken, A. Vazquez-Mayagoitia,
        L. Jensen, M. Swart, Q. Wu, T. Van Voorhis, A. A. Auer, M. Nooijen,
      L. D. Crosby, E. Brown, G. Cisneros, G. I. Fann, H. Fruchtl, J. Garza,
        K. Hirao, R. A. Kendall, J. A. Nichols, K. Tsemekhman, K. Wolinski,
     J. Anchell, D. E. Bernholdt, P. Borowski, T. Clark, D. Clerc, H. Dachsel,
   M. J. O. Deegan, K. Dyall, D. Elwood, E. Glendening, M. Gutowski, A. C. Hess,
         J. Jaffe, B. G. Johnson, J. Ju, R. Kobayashi, R. Kutteh, Z. Lin,
   R. Littlefield, X. Long, B. Meng, T. Nakajima, S. Niu, L. Pollack, M. Rosing,
   K. Glaesemann, G. Sandrone, M. Stave, H. Taylor, G. Thomas, J. H. van Lenthe,
                               A. T. Wong, Z. Zhang.

 Total times  cpu:        2.9s     wall:        7.5s
